;
;   File F:\polymer_task\single_chain\CLS_single.itp  was generated
;   By user: jasminefeng (0)
;   On host:DESKTOP-EHK58OI 
;   At date:Mon. April  1 19:58:32 2026 
;
;   This is a standalone topology file
;
;   Created by:
;   ParmEd:       extract_first_chain_itp.py, VERSION4.3.1 
;   Executable:   extract_first_chain_itp.py
;   Library dir:  /usr/local/gromacs/share/gromacs/top
;   Command line:
;     F:\\polymer_task\\scripts\\extract_first_chain_itp.py
;

[ moleculetype ]
; Name            nrexcl
CLS             3

[ atoms ]
;   nr       type  resnr residue  atom   cgnr    charge       mass  typeB    chargeB      massB
; residue    1 CLSA rtp CLSA q 0.0
    1         hc      1   CLSA     H1      1 0.20036200   1.008000   ; qtot 0.200362
    2         c3      1   CLSA     C1      2 -0.58584900  12.010000   ; qtot -0.385487
    3         c3      1   CLSA     C2      3 0.67363100  12.010000   ; qtot 0.288144
    4         c3      1   CLSA     C3      4 0.48768900  12.010000   ; qtot 0.775833
    5         c3      1   CLSA     C4      5 0.40471700  12.010000   ; qtot 1.180550
    6         c3      1   CLSA     C5      6 0.16499900  12.010000   ; qtot 1.345549
    7         h2      1   CLSA     H2      7 -0.02727400   1.008000   ; qtot 1.318275
    8         hc      1   CLSA     H3      8 0.20035800   1.008000   ; qtot 1.518633
    9         h1      1   CLSA     H4      9 0.06596300   1.008000   ; qtot 1.584596
   10         h1      1   CLSA     H5     10 0.09472600   1.008000   ; qtot 1.679322
   11         h1      1   CLSA     H6     11 0.03515100   1.008000   ; qtot 1.714473
   12         oh      1   CLSA     O1     12 -0.66430400  16.000000   ; qtot 1.050169
   13         ho      1   CLSA     H7     13 0.43177100   1.008000   ; qtot 1.481940
   14         oh      1   CLSA     O2     14 -0.71518100  16.000000   ; qtot 0.766759
   15         ho      1   CLSA     H8     15 0.45526200   1.008000   ; qtot 1.222021
   16         os      1   CLSA     O3     16 -0.63299900  16.000000   ; qtot 0.589022
   17         c3      1   CLSA     C6     17 0.25484800  12.010000   ; qtot 0.843870
   18         h1      1   CLSA     H9     18 0.05260900   1.008000   ; qtot 0.896479
   19         h1      1   CLSA    H10     19 0.05260900   1.008000   ; qtot 0.949088
   20         oh      1   CLSA     O4     20 -0.70304000  16.000000   ; qtot 0.246048
   21         ho      1   CLSA    H11     21 0.43111900   1.008000   ; qtot 0.677167
   22         os      1   CLSA     O5     22 -0.67716700  16.000000   ; qtot 0.000000
; residue    2 CLSB rtp CLSB q 0.0
   23         c3      2   CLSB     C7     23 0.44571400  12.010000   ; qtot 0.445714
   24         c3      2   CLSB     C8     24 0.59709000  12.010000   ; qtot 1.042804
   25         c3      2   CLSB     C9     25 -0.32466800  12.010000   ; qtot 0.718136
   26         c3      2   CLSB    C10     26 0.16009800  12.010000   ; qtot 0.878234
   27         c3      2   CLSB    C11     27 -0.00337300  12.010000   ; qtot 0.874861
   28         h1      2   CLSB    H12     28 0.15577300   1.008000   ; qtot 1.030634
   29         h1      2   CLSB    H13     29 -0.02870400   1.008000   ; qtot 1.001930
   30         h1      2   CLSB    H14     30 -0.01508100   1.008000   ; qtot 0.986849
   31         h2      2   CLSB    H15     31 0.22492400   1.008000   ; qtot 1.211773
   32         h1      2   CLSB    H16     32 -0.02006700   1.008000   ; qtot 1.191706
   33         os      2   CLSB     O6     33 -0.42623600  16.000000   ; qtot 0.765470
   34         c3      2   CLSB    C12     34 0.23750800  12.010000   ; qtot 1.002978
   35         h1      2   CLSB    H17     35 -0.00724900   1.008000   ; qtot 0.995729
   36         h1      2   CLSB    H18     36 -0.00724900   1.008000   ; qtot 0.988480
   37         oh      2   CLSB     O7     37 -0.61612000  16.000000   ; qtot 0.372360
   38         ho      2   CLSB    H19     38 0.39952500   1.008000   ; qtot 0.771885
   39         oh      2   CLSB     O8     39 -0.70261900  16.000000   ; qtot 0.069266
   40         ho      2   CLSB    H20     40 0.38971300   1.008000   ; qtot 0.458979
   41         oh      2   CLSB     O9     41 -0.63319500  16.000000   ; qtot -0.174216
   42         ho      2   CLSB    H21     42 0.46144400   1.008000   ; qtot 0.287228
   43         os      2   CLSB    O10     43 -0.28722800  16.000000   ; qtot 0.000000
; residue    3 CLSA rtp CLSA q -0.0
   44         c3      3   CLSA    C13     44 0.63763600  12.010000   ; qtot 0.637636
   45         c3      3   CLSA    C14     45 0.61440900  12.010000   ; qtot 1.252045
   46         c3      3   CLSA    C15     46 -0.17128500  12.010000   ; qtot 1.080760
   47         c3      3   CLSA    C16     47 0.05788500  12.010000   ; qtot 1.138645
   48         c3      3   CLSA    C17     48 0.02509500  12.010000   ; qtot 1.163740
   49         h2      3   CLSA    H22     49 -0.06266200   1.008000   ; qtot 1.101078
   50         h1      3   CLSA    H23     50 0.01173400   1.008000   ; qtot 1.112812
   51         h1      3   CLSA    H24     51 0.14367100   1.008000   ; qtot 1.256483
   52         h1      3   CLSA    H25     52 0.10510900   1.008000   ; qtot 1.361592
   53         h1      3   CLSA    H26     53 0.09512900   1.008000   ; qtot 1.456721
   54         oh      3   CLSA    O11     54 -0.71951300  16.000000   ; qtot 0.737208
   55         ho      3   CLSA    H27     55 0.45617100   1.008000   ; qtot 1.193379
   56         oh      3   CLSA    O12     56 -0.73079300  16.000000   ; qtot 0.462586
   57         ho      3   CLSA    H28     57 0.46985600   1.008000   ; qtot 0.932442
   58         os      3   CLSA    O13     58 -0.47400200  16.000000   ; qtot 0.458440
   59         c3      3   CLSA    C18     59 0.33334400  12.010000   ; qtot 0.791784
   60         h1      3   CLSA    H29     60 -0.00865900   1.008000   ; qtot 0.783125
   61         h1      3   CLSA    H30     61 -0.00865900   1.008000   ; qtot 0.774466
   62         oh      3   CLSA    O14     62 -0.71421600  16.000000   ; qtot 0.060250
   63         ho      3   CLSA    H31     63 0.41942800   1.008000   ; qtot 0.479678
   64         os      3   CLSA    O15     64 -0.47967800  16.000000   ; qtot 0.000000
; residue    4 CLSB rtp CLSB q 0.0
   65         c3      4   CLSB    C19     65 0.44571400  12.010000   ; qtot 0.445714
   66         c3      4   CLSB    C20     66 0.59709000  12.010000   ; qtot 1.042804
   67         c3      4   CLSB    C21     67 -0.32466800  12.010000   ; qtot 0.718136
   68         c3      4   CLSB    C22     68 0.16009800  12.010000   ; qtot 0.878234
   69         c3      4   CLSB    C23     69 -0.00337300  12.010000   ; qtot 0.874861
   70         h1      4   CLSB    H32     70 0.15577300   1.008000   ; qtot 1.030634
   71         h1      4   CLSB    H33     71 -0.02870400   1.008000   ; qtot 1.001930
   72         h1      4   CLSB    H34     72 -0.01508100   1.008000   ; qtot 0.986849
   73         h2      4   CLSB    H35     73 0.22492400   1.008000   ; qtot 1.211773
   74         h1      4   CLSB    H36     74 -0.02006700   1.008000   ; qtot 1.191706
   75         os      4   CLSB    O16     75 -0.42623600  16.000000   ; qtot 0.765470
   76         c3      4   CLSB    C24     76 0.23750800  12.010000   ; qtot 1.002978
   77         h1      4   CLSB    H37     77 -0.00724900   1.008000   ; qtot 0.995729
   78         h1      4   CLSB    H38     78 -0.00724900   1.008000   ; qtot 0.988480
   79         oh      4   CLSB    O17     79 -0.61612000  16.000000   ; qtot 0.372360
   80         ho      4   CLSB    H39     80 0.39952500   1.008000   ; qtot 0.771885
   81         oh      4   CLSB    O18     81 -0.70261900  16.000000   ; qtot 0.069266
   82         ho      4   CLSB    H40     82 0.38971300   1.008000   ; qtot 0.458979
   83         oh      4   CLSB    O19     83 -0.63319500  16.000000   ; qtot -0.174216
   84         ho      4   CLSB    H41     84 0.46144400   1.008000   ; qtot 0.287228
   85         os      4   CLSB    O20     85 -0.28722800  16.000000   ; qtot 0.000000
; residue    5 CLSA rtp CLSA q -0.0
   86         c3      5   CLSA    C25     86 0.63763600  12.010000   ; qtot 0.637636
   87         c3      5   CLSA    C26     87 0.61440900  12.010000   ; qtot 1.252045
   88         c3      5   CLSA    C27     88 -0.17128500  12.010000   ; qtot 1.080760
   89         c3      5   CLSA    C28     89 0.05788500  12.010000   ; qtot 1.138645
   90         c3      5   CLSA    C29     90 0.02509500  12.010000   ; qtot 1.163740
   91         h2      5   CLSA    H42     91 -0.06266200   1.008000   ; qtot 1.101078
   92         h1      5   CLSA    H43     92 0.01173400   1.008000   ; qtot 1.112812
   93         h1      5   CLSA    H44     93 0.14367100   1.008000   ; qtot 1.256483
   94         h1      5   CLSA    H45     94 0.10510900   1.008000   ; qtot 1.361592
   95         h1      5   CLSA    H46     95 0.09512900   1.008000   ; qtot 1.456721
   96         oh      5   CLSA    O21     96 -0.71951300  16.000000   ; qtot 0.737208
   97         ho      5   CLSA    H47     97 0.45617100   1.008000   ; qtot 1.193379
   98         oh      5   CLSA    O22     98 -0.73079300  16.000000   ; qtot 0.462586
   99         ho      5   CLSA    H48     99 0.46985600   1.008000   ; qtot 0.932442
  100         os      5   CLSA    O23    100 -0.47400200  16.000000   ; qtot 0.458440
  101         c3      5   CLSA    C30    101 0.33334400  12.010000   ; qtot 0.791784
  102         h1      5   CLSA    H49    102 -0.00865900   1.008000   ; qtot 0.783125
  103         h1      5   CLSA    H50    103 -0.00865900   1.008000   ; qtot 0.774466
  104         oh      5   CLSA    O24    104 -0.71421600  16.000000   ; qtot 0.060250
  105         ho      5   CLSA    H51    105 0.41942800   1.008000   ; qtot 0.479678
  106         os      5   CLSA    O25    106 -0.47967800  16.000000   ; qtot 0.000000
; residue    6 CLSB rtp CLSB q 0.0
  107         c3      6   CLSB    C31    107 0.44571400  12.010000   ; qtot 0.445714
  108         c3      6   CLSB    C32    108 0.59709000  12.010000   ; qtot 1.042804
  109         c3      6   CLSB    C33    109 -0.32466800  12.010000   ; qtot 0.718136
  110         c3      6   CLSB    C34    110 0.16009800  12.010000   ; qtot 0.878234
  111         c3      6   CLSB    C35    111 -0.00337300  12.010000   ; qtot 0.874861
  112         h1      6   CLSB    H52    112 0.15577300   1.008000   ; qtot 1.030634
  113         h1      6   CLSB    H53    113 -0.02870400   1.008000   ; qtot 1.001930
  114         h1      6   CLSB    H54    114 -0.01508100   1.008000   ; qtot 0.986849
  115         h2      6   CLSB    H55    115 0.22492400   1.008000   ; qtot 1.211773
  116         h1      6   CLSB    H56    116 -0.02006700   1.008000   ; qtot 1.191706
  117         os      6   CLSB    O26    117 -0.42623600  16.000000   ; qtot 0.765470
  118         c3      6   CLSB    C36    118 0.23750800  12.010000   ; qtot 1.002978
  119         h1      6   CLSB    H57    119 -0.00724900   1.008000   ; qtot 0.995729
  120         h1      6   CLSB    H58    120 -0.00724900   1.008000   ; qtot 0.988480
  121         oh      6   CLSB    O27    121 -0.61612000  16.000000   ; qtot 0.372360
  122         ho      6   CLSB    H59    122 0.39952500   1.008000   ; qtot 0.771885
  123         oh      6   CLSB    O28    123 -0.70261900  16.000000   ; qtot 0.069266
  124         ho      6   CLSB    H60    124 0.38971300   1.008000   ; qtot 0.458979
  125         oh      6   CLSB    O29    125 -0.63319500  16.000000   ; qtot -0.174216
  126         ho      6   CLSB    H61    126 0.46144400   1.008000   ; qtot 0.287228
  127         os      6   CLSB    O30    127 -0.28722800  16.000000   ; qtot 0.000000
; residue    7 CLSA rtp CLSA q -0.0
  128         c3      7   CLSA    C37    128 0.63763600  12.010000   ; qtot 0.637636
  129         c3      7   CLSA    C38    129 0.61440900  12.010000   ; qtot 1.252045
  130         c3      7   CLSA    C39    130 -0.17128500  12.010000   ; qtot 1.080760
  131         c3      7   CLSA    C40    131 0.05788500  12.010000   ; qtot 1.138645
  132         c3      7   CLSA    C41    132 0.02509500  12.010000   ; qtot 1.163740
  133         h2      7   CLSA    H62    133 -0.06266200   1.008000   ; qtot 1.101078
  134         h1      7   CLSA    H63    134 0.01173400   1.008000   ; qtot 1.112812
  135         h1      7   CLSA    H64    135 0.14367100   1.008000   ; qtot 1.256483
  136         h1      7   CLSA    H65    136 0.10510900   1.008000   ; qtot 1.361592
  137         h1      7   CLSA    H66    137 0.09512900   1.008000   ; qtot 1.456721
  138         oh      7   CLSA    O31    138 -0.71951300  16.000000   ; qtot 0.737208
  139         ho      7   CLSA    H67    139 0.45617100   1.008000   ; qtot 1.193379
  140         oh      7   CLSA    O32    140 -0.73079300  16.000000   ; qtot 0.462586
  141         ho      7   CLSA    H68    141 0.46985600   1.008000   ; qtot 0.932442
  142         os      7   CLSA    O33    142 -0.47400200  16.000000   ; qtot 0.458440
  143         c3      7   CLSA    C42    143 0.33334400  12.010000   ; qtot 0.791784
  144         h1      7   CLSA    H69    144 -0.00865900   1.008000   ; qtot 0.783125
  145         h1      7   CLSA    H70    145 -0.00865900   1.008000   ; qtot 0.774466
  146         oh      7   CLSA    O34    146 -0.71421600  16.000000   ; qtot 0.060250
  147         ho      7   CLSA    H71    147 0.41942800   1.008000   ; qtot 0.479678
  148         os      7   CLSA    O35    148 -0.47967800  16.000000   ; qtot 0.000000
; residue    8 CLSB rtp CLSB q 0.0
  149         c3      8   CLSB    C43    149 0.44571400  12.010000   ; qtot 0.445714
  150         c3      8   CLSB    C44    150 0.59709000  12.010000   ; qtot 1.042804
  151         c3      8   CLSB    C45    151 -0.32466800  12.010000   ; qtot 0.718136
  152         c3      8   CLSB    C46    152 0.16009800  12.010000   ; qtot 0.878234
  153         c3      8   CLSB    C47    153 -0.00337300  12.010000   ; qtot 0.874861
  154         h1      8   CLSB    H72    154 0.15577300   1.008000   ; qtot 1.030634
  155         h1      8   CLSB    H73    155 -0.02870400   1.008000   ; qtot 1.001930
  156         h1      8   CLSB    H74    156 -0.01508100   1.008000   ; qtot 0.986849
  157         h2      8   CLSB    H75    157 0.22492400   1.008000   ; qtot 1.211773
  158         h1      8   CLSB    H76    158 -0.02006700   1.008000   ; qtot 1.191706
  159         os      8   CLSB    O36    159 -0.42623600  16.000000   ; qtot 0.765470
  160         c3      8   CLSB    C48    160 0.23750800  12.010000   ; qtot 1.002978
  161         h1      8   CLSB    H77    161 -0.00724900   1.008000   ; qtot 0.995729
  162         h1      8   CLSB    H78    162 -0.00724900   1.008000   ; qtot 0.988480
  163         oh      8   CLSB    O37    163 -0.61612000  16.000000   ; qtot 0.372360
  164         ho      8   CLSB    H79    164 0.39952500   1.008000   ; qtot 0.771885
  165         oh      8   CLSB    O38    165 -0.70261900  16.000000   ; qtot 0.069266
  166         ho      8   CLSB    H80    166 0.38971300   1.008000   ; qtot 0.458979
  167         oh      8   CLSB    O39    167 -0.63319500  16.000000   ; qtot -0.174216
  168         ho      8   CLSB    H81    168 0.46144400   1.008000   ; qtot 0.287228
  169         os      8   CLSB    O40    169 -0.28722800  16.000000   ; qtot 0.000000
; residue    9 CLSA rtp CLSA q -0.0
  170         c3      9   CLSA    C49    170 0.63763600  12.010000   ; qtot 0.637636
  171         c3      9   CLSA    C50    171 0.61440900  12.010000   ; qtot 1.252045
  172         c3      9   CLSA    C51    172 -0.17128500  12.010000   ; qtot 1.080760
  173         c3      9   CLSA    C52    173 0.05788500  12.010000   ; qtot 1.138645
  174         c3      9   CLSA    C53    174 0.02509500  12.010000   ; qtot 1.163740
  175         h2      9   CLSA    H82    175 -0.06266200   1.008000   ; qtot 1.101078
  176         h1      9   CLSA    H83    176 0.01173400   1.008000   ; qtot 1.112812
  177         h1      9   CLSA    H84    177 0.14367100   1.008000   ; qtot 1.256483
  178         h1      9   CLSA    H85    178 0.10510900   1.008000   ; qtot 1.361592
  179         h1      9   CLSA    H86    179 0.09512900   1.008000   ; qtot 1.456721
  180         oh      9   CLSA    O41    180 -0.71951300  16.000000   ; qtot 0.737208
  181         ho      9   CLSA    H87    181 0.45617100   1.008000   ; qtot 1.193379
  182         oh      9   CLSA    O42    182 -0.73079300  16.000000   ; qtot 0.462586
  183         ho      9   CLSA    H88    183 0.46985600   1.008000   ; qtot 0.932442
  184         os      9   CLSA    O43    184 -0.47400200  16.000000   ; qtot 0.458440
  185         c3      9   CLSA    C54    185 0.33334400  12.010000   ; qtot 0.791784
  186         h1      9   CLSA    H89    186 -0.00865900   1.008000   ; qtot 0.783125
  187         h1      9   CLSA    H90    187 -0.00865900   1.008000   ; qtot 0.774466
  188         oh      9   CLSA    O44    188 -0.71421600  16.000000   ; qtot 0.060250
  189         ho      9   CLSA    H91    189 0.41942800   1.008000   ; qtot 0.479678
  190         os      9   CLSA    O45    190 -0.47967800  16.000000   ; qtot 0.000000
; residue   10 CLSB rtp CLSB q -0.0
  191         c3     10   CLSB    C55    191 0.12160200  12.010000   ; qtot 0.121602
  192         c3     10   CLSB    C56    192 0.30803200  12.010000   ; qtot 0.429634
  193         c3     10   CLSB    C57    193 0.13307100  12.010000   ; qtot 0.562705
  194         c3     10   CLSB    C58    194 -0.02283700  12.010000   ; qtot 0.539868
  195         c3     10   CLSB    C59    195 0.29551400  12.010000   ; qtot 0.835382
  196         h1     10   CLSB    H92    196 0.08804100   1.008000   ; qtot 0.923423
  197         h1     10   CLSB    H93    197 -0.01009500   1.008000   ; qtot 0.913328
  198         h1     10   CLSB    H94    198 0.09737600   1.008000   ; qtot 1.010704
  199         h2     10   CLSB    H95    199 0.14821800   1.008000   ; qtot 1.158922
  200         h1     10   CLSB    H96    200 0.06226200   1.008000   ; qtot 1.221184
  201         os     10   CLSB    O46    201 -0.43219500  16.000000   ; qtot 0.788989
  202         c3     10   CLSB    C60    202 0.09552700  12.010000   ; qtot 0.884516
  203         h1     10   CLSB    H97    203 0.08063000   1.008000   ; qtot 0.965146
  204         h1     10   CLSB    H98    204 0.08063000   1.008000   ; qtot 1.045776
  205         oh     10   CLSB    O47    205 -0.62301900  16.000000   ; qtot 0.422757
  206         ho     10   CLSB    H99    206 0.39967600   1.008000   ; qtot 0.822433
  207         oh     10   CLSB    O48    207 -0.69395100  16.000000   ; qtot 0.128482
  208         ho     10   CLSB   H100    208 0.43532400   1.008000   ; qtot 0.563806
  209         oh     10   CLSB    O49    209 -0.78568700  16.000000   ; qtot -0.221881
  210         ho     10   CLSB   H101    210 0.50054700   1.008000   ; qtot 0.278666
  211         oh     10   CLSB    O50    211 -0.71279800  16.000000   ; qtot -0.434132
  212         ho     10   CLSB   H102    212 0.43413200   1.008000   ; qtot 0.000000

[ bonds ]
;    ai     aj funct         c0         c1         c2         c3
      1      2     1   0.10970 314550.000000
      1      9     1   0.10900 314550.000000
      2      4     1   0.15380 194560.000000
      2      5     1   0.15380 194560.000000
      2      8     1   0.10970 314550.000000
      3      6     1   0.15380 194560.000000
      3      7     1   0.10960 315720.000000
      3     16     1   0.14320 238320.000000
      3     22     1   0.14320 238320.000000
      4     11     1   0.10970 314550.000000
      4     16     1   0.14320 238320.000000
      4     17     1   0.15380 194560.000000
      5      6     1   0.15380 194560.000000
      5      9     1   0.10970 314550.000000
      5     12     1   0.14230 245520.000000
      6     10     1   0.10970 314550.000000
      6     14     1   0.14230 245520.000000
     12     13     1   0.09730 471540.000000
     14     15     1   0.09730 471540.000000
     17     18     1   0.10970 314550.000000
     17     19     1   0.10970 314550.000000
     17     20     1   0.14230 245520.000000
     20     21     1   0.09730 471540.000000
     22     23     1   0.14320 238320.000000
     23     25     1   0.15380 194560.000000
     23     26     1   0.15380 194560.000000
     23     32     1   0.10970 314550.000000
     24     25     1   0.15380 194560.000000
     24     27     1   0.15380 194560.000000
     24     29     1   0.10970 314550.000000
     24     39     1   0.14230 245520.000000
     25     28     1   0.10970 314550.000000
     25     41     1   0.14230 245520.000000
     26     30     1   0.10970 314550.000000
     26     33     1   0.14320 238320.000000
     26     34     1   0.15380 194560.000000
     27     31     1   0.10960 315720.000000
     27     33     1   0.14320 238320.000000
     27     43     1   0.14320 238320.000000
     34     35     1   0.10970 314550.000000
     34     36     1   0.10970 314550.000000
     34     37     1   0.14230 245520.000000
     37     38     1   0.09730 471540.000000
     39     40     1   0.09730 471540.000000
     41     42     1   0.09730 471540.000000
     43     44     1   0.14320 238320.000000
     44     46     1   0.15380 194560.000000
     44     47     1   0.15380 194560.000000
     44     50     1   0.10970 314550.000000
     45     48     1   0.15380 194560.000000
     45     49     1   0.10960 315720.000000
     45     58     1   0.14320 238320.000000
     45     64     1   0.14320 238320.000000
     46     53     1   0.10970 314550.000000
     46     58     1   0.14320 238320.000000
     46     59     1   0.15380 194560.000000
     47     48     1   0.15380 194560.000000
     47     51     1   0.10970 314550.000000
     47     54     1   0.14230 245520.000000
     48     52     1   0.10970 314550.000000
     48     56     1   0.14230 245520.000000
     54     55     1   0.09730 471540.000000
     56     57     1   0.09730 471540.000000
     59     60     1   0.10970 314550.000000
     59     61     1   0.10970 314550.000000
     59     62     1   0.14230 245520.000000
     62     63     1   0.09730 471540.000000
     64     65     1   0.14320 238320.000000
     65     67     1   0.15380 194560.000000
     65     68     1   0.15380 194560.000000
     65     74     1   0.10970 314550.000000
     66     67     1   0.15380 194560.000000
     66     69     1   0.15380 194560.000000
     66     71     1   0.10970 314550.000000
     66     81     1   0.14230 245520.000000
     67     70     1   0.10970 314550.000000
     67     83     1   0.14230 245520.000000
     68     72     1   0.10970 314550.000000
     68     75     1   0.14320 238320.000000
     68     76     1   0.15380 194560.000000
     69     73     1   0.10960 315720.000000
     69     75     1   0.14320 238320.000000
     69     85     1   0.14320 238320.000000
     76     77     1   0.10970 314550.000000
     76     78     1   0.10970 314550.000000
     76     79     1   0.14230 245520.000000
     79     80     1   0.09730 471540.000000
     81     82     1   0.09730 471540.000000
     83     84     1   0.09730 471540.000000
     85     86     1   0.14320 238320.000000
     86     88     1   0.15380 194560.000000
     86     89     1   0.15380 194560.000000
     86     92     1   0.10970 314550.000000
     87     90     1   0.15380 194560.000000
     87     91     1   0.10960 315720.000000
     87    100     1   0.14320 238320.000000
     87    106     1   0.14320 238320.000000
     88     95     1   0.10970 314550.000000
     88    100     1   0.14320 238320.000000
     88    101     1   0.15380 194560.000000
     89     90     1   0.15380 194560.000000
     89     93     1   0.10970 314550.000000
     89     96     1   0.14230 245520.000000
     90     94     1   0.10970 314550.000000
     90     98     1   0.14230 245520.000000
     96     97     1   0.09730 471540.000000
     98     99     1   0.09730 471540.000000
    101    102     1   0.10970 314550.000000
    101    103     1   0.10970 314550.000000
    101    104     1   0.14230 245520.000000
    104    105     1   0.09730 471540.000000
    106    107     1   0.14320 238320.000000
    107    109     1   0.15380 194560.000000
    107    110     1   0.15380 194560.000000
    107    116     1   0.10970 314550.000000
    108    109     1   0.15380 194560.000000
    108    111     1   0.15380 194560.000000
    108    113     1   0.10970 314550.000000
    108    123     1   0.14230 245520.000000
    109    112     1   0.10970 314550.000000
    109    125     1   0.14230 245520.000000
    110    114     1   0.10970 314550.000000
    110    117     1   0.14320 238320.000000
    110    118     1   0.15380 194560.000000
    111    115     1   0.10960 315720.000000
    111    117     1   0.14320 238320.000000
    111    127     1   0.14320 238320.000000
    118    119     1   0.10970 314550.000000
    118    120     1   0.10970 314550.000000
    118    121     1   0.14230 245520.000000
    121    122     1   0.09730 471540.000000
    123    124     1   0.09730 471540.000000
    125    126     1   0.09730 471540.000000
    127    128     1   0.14320 238320.000000
    128    130     1   0.15380 194560.000000
    128    131     1   0.15380 194560.000000
    128    134     1   0.10970 314550.000000
    129    132     1   0.15380 194560.000000
    129    133     1   0.10960 315720.000000
    129    142     1   0.14320 238320.000000
    129    148     1   0.14320 238320.000000
    130    137     1   0.10970 314550.000000
    130    142     1   0.14320 238320.000000
    130    143     1   0.15380 194560.000000
    131    132     1   0.15380 194560.000000
    131    135     1   0.10970 314550.000000
    131    138     1   0.14230 245520.000000
    132    136     1   0.10970 314550.000000
    132    140     1   0.14230 245520.000000
    138    139     1   0.09730 471540.000000
    140    141     1   0.09730 471540.000000
    143    144     1   0.10970 314550.000000
    143    145     1   0.10970 314550.000000
    143    146     1   0.14230 245520.000000
    146    147     1   0.09730 471540.000000
    148    149     1   0.14320 238320.000000
    149    151     1   0.15380 194560.000000
    149    152     1   0.15380 194560.000000
    149    158     1   0.10970 314550.000000
    150    151     1   0.15380 194560.000000
    150    153     1   0.15380 194560.000000
    150    155     1   0.10970 314550.000000
    150    165     1   0.14230 245520.000000
    151    154     1   0.10970 314550.000000
    151    167     1   0.14230 245520.000000
    152    156     1   0.10970 314550.000000
    152    159     1   0.14320 238320.000000
    152    160     1   0.15380 194560.000000
    153    157     1   0.10960 315720.000000
    153    159     1   0.14320 238320.000000
    153    169     1   0.14320 238320.000000
    160    161     1   0.10970 314550.000000
    160    162     1   0.10970 314550.000000
    160    163     1   0.14230 245520.000000
    163    164     1   0.09730 471540.000000
    165    166     1   0.09730 471540.000000
    167    168     1   0.09730 471540.000000
    169    170     1   0.14320 238320.000000
    170    172     1   0.15380 194560.000000
    170    173     1   0.15380 194560.000000
    170    176     1   0.10970 314550.000000
    171    174     1   0.15380 194560.000000
    171    175     1   0.10960 315720.000000
    171    184     1   0.14320 238320.000000
    171    190     1   0.14320 238320.000000
    172    179     1   0.10970 314550.000000
    172    184     1   0.14320 238320.000000
    172    185     1   0.15380 194560.000000
    173    174     1   0.15380 194560.000000
    173    177     1   0.10970 314550.000000
    173    180     1   0.14230 245520.000000
    174    178     1   0.10970 314550.000000
    174    182     1   0.14230 245520.000000
    180    181     1   0.09730 471540.000000
    182    183     1   0.09730 471540.000000
    185    186     1   0.10970 314550.000000
    185    187     1   0.10970 314550.000000
    185    188     1   0.14230 245520.000000
    188    189     1   0.09730 471540.000000
    190    191     1   0.14320 238320.000000
    191    193     1   0.15380 194560.000000
    191    194     1   0.15380 194560.000000
    191    200     1   0.10970 314550.000000
    192    193     1   0.15380 194560.000000
    192    195     1   0.15380 194560.000000
    192    197     1   0.10970 314550.000000
    192    207     1   0.14230 245520.000000
    193    196     1   0.10970 314550.000000
    193    209     1   0.14230 245520.000000
    194    198     1   0.10970 314550.000000
    194    201     1   0.14320 238320.000000
    194    202     1   0.15380 194560.000000
    195    199     1   0.10960 315720.000000
    195    201     1   0.14320 238320.000000
    195    211     1   0.14230 245520.000000
    202    203     1   0.10970 314550.000000
    202    204     1   0.10970 314550.000000
    202    205     1   0.14230 245520.000000
    205    206     1   0.09730 471540.000000
    207    208     1   0.09730 471540.000000
    209    210     1   0.09730 471540.000000
    211    212     1   0.09730 471540.000000

[ pairs ]
;    ai     aj funct         c0         c1         c2         c3
      1      6     1
      1      9     1
      1     11     1
      1     12     1
      1     16     1
      1     17     1
      2      3     1
      2     10     1
      2     13     1
      2     14     1
      2     18     1
      2     19     1
      2     20     1
      3      9     1
      3     11     1
      3     12     1
      3     15     1
      3     17     1
      3     25     1
      3     26     1
      3     32     1
      4      6     1
      4      7     1
      4      9     1
      4     12     1
      4     21     1
      4     22     1
      5      7     1
      5     11     1
      5     15     1
      5     16     1
      5     17     1
      5     22     1
      6      8     1
      6     13     1
      6     23     1
      7     10     1
      7     14     1
      7     23     1
      8      9     1
      8     11     1
      8     12     1
      8     16     1
      8     17     1
      9     10     1
      9     13     1
      9     14     1
     10     12     1
     10     15     1
     10     16     1
     10     22     1
     11     18     1
     11     19     1
     11     20     1
     12     14     1
     14     16     1
     14     22     1
     16     18     1
     16     19     1
     16     20     1
     16     23     1
     18     21     1
     19     21     1
     22     24     1
     22     28     1
     22     30     1
     22     33     1
     22     34     1
     22     41     1
     23     27     1
     23     29     1
     23     35     1
     23     36     1
     23     37     1
     23     39     1
     23     42     1
     24     26     1
     24     32     1
     24     42     1
     24     44     1
     25     30     1
     25     31     1
     25     33     1
     25     34     1
     25     40     1
     25     43     1
     26     28     1
     26     31     1
     26     38     1
     26     41     1
     26     43     1
     27     28     1
     27     30     1
     27     34     1
     27     40     1
     27     41     1
     27     46     1
     27     47     1
     27     50     1
     28     29     1
     28     32     1
     28     39     1
     28     42     1
     29     31     1
     29     33     1
     29     40     1
     29     41     1
     29     43     1
     30     32     1
     30     35     1
     30     36     1
     30     37     1
     31     39     1
     31     44     1
     32     33     1
     32     34     1
     32     41     1
     33     35     1
     33     36     1
     33     37     1
     33     39     1
     33     44     1
     35     38     1
     36     38     1
     39     41     1
     39     43     1
     43     48     1
     43     51     1
     43     53     1
     43     54     1
     43     58     1
     43     59     1
     44     45     1
     44     52     1
     44     55     1
     44     56     1
     44     60     1
     44     61     1
     44     62     1
     45     51     1
     45     53     1
     45     54     1
     45     57     1
     45     59     1
     45     67     1
     45     68     1
     45     74     1
     46     48     1
     46     49     1
     46     51     1
     46     54     1
     46     63     1
     46     64     1
     47     49     1
     47     53     1
     47     57     1
     47     58     1
     47     59     1
     47     64     1
     48     50     1
     48     55     1
     48     65     1
     49     52     1
     49     56     1
     49     65     1
     50     51     1
     50     53     1
     50     54     1
     50     58     1
     50     59     1
     51     52     1
     51     55     1
     51     56     1
     52     54     1
     52     57     1
     52     58     1
     52     64     1
     53     60     1
     53     61     1
     53     62     1
     54     56     1
     56     58     1
     56     64     1
     58     60     1
     58     61     1
     58     62     1
     58     65     1
     60     63     1
     61     63     1
     64     66     1
     64     70     1
     64     72     1
     64     75     1
     64     76     1
     64     83     1
     65     69     1
     65     71     1
     65     77     1
     65     78     1
     65     79     1
     65     81     1
     65     84     1
     66     68     1
     66     74     1
     66     84     1
     66     86     1
     67     72     1
     67     73     1
     67     75     1
     67     76     1
     67     82     1
     67     85     1
     68     70     1
     68     73     1
     68     80     1
     68     83     1
     68     85     1
     69     70     1
     69     72     1
     69     76     1
     69     82     1
     69     83     1
     69     88     1
     69     89     1
     69     92     1
     70     71     1
     70     74     1
     70     81     1
     70     84     1
     71     73     1
     71     75     1
     71     82     1
     71     83     1
     71     85     1
     72     74     1
     72     77     1
     72     78     1
     72     79     1
     73     81     1
     73     86     1
     74     75     1
     74     76     1
     74     83     1
     75     77     1
     75     78     1
     75     79     1
     75     81     1
     75     86     1
     77     80     1
     78     80     1
     81     83     1
     81     85     1
     85     90     1
     85     93     1
     85     95     1
     85     96     1
     85    100     1
     85    101     1
     86     87     1
     86     94     1
     86     97     1
     86     98     1
     86    102     1
     86    103     1
     86    104     1
     87     93     1
     87     95     1
     87     96     1
     87     99     1
     87    101     1
     87    109     1
     87    110     1
     87    116     1
     88     90     1
     88     91     1
     88     93     1
     88     96     1
     88    105     1
     88    106     1
     89     91     1
     89     95     1
     89     99     1
     89    100     1
     89    101     1
     89    106     1
     90     92     1
     90     97     1
     90    107     1
     91     94     1
     91     98     1
     91    107     1
     92     93     1
     92     95     1
     92     96     1
     92    100     1
     92    101     1
     93     94     1
     93     97     1
     93     98     1
     94     96     1
     94     99     1
     94    100     1
     94    106     1
     95    102     1
     95    103     1
     95    104     1
     96     98     1
     98    100     1
     98    106     1
    100    102     1
    100    103     1
    100    104     1
    100    107     1
    102    105     1
    103    105     1
    106    108     1
    106    112     1
    106    114     1
    106    117     1
    106    118     1
    106    125     1
    107    111     1
    107    113     1
    107    119     1
    107    120     1
    107    121     1
    107    123     1
    107    126     1
    108    110     1
    108    116     1
    108    126     1
    108    128     1
    109    114     1
    109    115     1
    109    117     1
    109    118     1
    109    124     1
    109    127     1
    110    112     1
    110    115     1
    110    122     1
    110    125     1
    110    127     1
    111    112     1
    111    114     1
    111    118     1
    111    124     1
    111    125     1
    111    130     1
    111    131     1
    111    134     1
    112    113     1
    112    116     1
    112    123     1
    112    126     1
    113    115     1
    113    117     1
    113    124     1
    113    125     1
    113    127     1
    114    116     1
    114    119     1
    114    120     1
    114    121     1
    115    123     1
    115    128     1
    116    117     1
    116    118     1
    116    125     1
    117    119     1
    117    120     1
    117    121     1
    117    123     1
    117    128     1
    119    122     1
    120    122     1
    123    125     1
    123    127     1
    127    132     1
    127    135     1
    127    137     1
    127    138     1
    127    142     1
    127    143     1
    128    129     1
    128    136     1
    128    139     1
    128    140     1
    128    144     1
    128    145     1
    128    146     1
    129    135     1
    129    137     1
    129    138     1
    129    141     1
    129    143     1
    129    151     1
    129    152     1
    129    158     1
    130    132     1
    130    133     1
    130    135     1
    130    138     1
    130    147     1
    130    148     1
    131    133     1
    131    137     1
    131    141     1
    131    142     1
    131    143     1
    131    148     1
    132    134     1
    132    139     1
    132    149     1
    133    136     1
    133    140     1
    133    149     1
    134    135     1
    134    137     1
    134    138     1
    134    142     1
    134    143     1
    135    136     1
    135    139     1
    135    140     1
    136    138     1
    136    141     1
    136    142     1
    136    148     1
    137    144     1
    137    145     1
    137    146     1
    138    140     1
    140    142     1
    140    148     1
    142    144     1
    142    145     1
    142    146     1
    142    149     1
    144    147     1
    145    147     1
    148    150     1
    148    154     1
    148    156     1
    148    159     1
    148    160     1
    148    167     1
    149    153     1
    149    155     1
    149    161     1
    149    162     1
    149    163     1
    149    165     1
    149    168     1
    150    152     1
    150    158     1
    150    168     1
    150    170     1
    151    156     1
    151    157     1
    151    159     1
    151    160     1
    151    166     1
    151    169     1
    152    154     1
    152    157     1
    152    164     1
    152    167     1
    152    169     1
    153    154     1
    153    156     1
    153    160     1
    153    166     1
    153    167     1
    153    172     1
    153    173     1
    153    176     1
    154    155     1
    154    158     1
    154    165     1
    154    168     1
    155    157     1
    155    159     1
    155    166     1
    155    167     1
    155    169     1
    156    158     1
    156    161     1
    156    162     1
    156    163     1
    157    165     1
    157    170     1
    158    159     1
    158    160     1
    158    167     1
    159    161     1
    159    162     1
    159    163     1
    159    165     1
    159    170     1
    161    164     1
    162    164     1
    165    167     1
    165    169     1
    169    174     1
    169    177     1
    169    179     1
    169    180     1
    169    184     1
    169    185     1
    170    171     1
    170    178     1
    170    181     1
    170    182     1
    170    186     1
    170    187     1
    170    188     1
    171    177     1
    171    179     1
    171    180     1
    171    183     1
    171    185     1
    171    193     1
    171    194     1
    171    200     1
    172    174     1
    172    175     1
    172    177     1
    172    180     1
    172    189     1
    172    190     1
    173    175     1
    173    179     1
    173    183     1
    173    184     1
    173    185     1
    173    190     1
    174    176     1
    174    181     1
    174    191     1
    175    178     1
    175    182     1
    175    191     1
    176    177     1
    176    179     1
    176    180     1
    176    184     1
    176    185     1
    177    178     1
    177    181     1
    177    182     1
    178    180     1
    178    183     1
    178    184     1
    178    190     1
    179    186     1
    179    187     1
    179    188     1
    180    182     1
    182    184     1
    182    190     1
    184    186     1
    184    187     1
    184    188     1
    184    191     1
    186    189     1
    187    189     1
    190    192     1
    190    196     1
    190    198     1
    190    201     1
    190    202     1
    190    209     1
    191    195     1
    191    197     1
    191    203     1
    191    204     1
    191    205     1
    191    207     1
    191    210     1
    192    194     1
    192    200     1
    192    210     1
    192    212     1
    193    198     1
    193    199     1
    193    201     1
    193    202     1
    193    208     1
    193    211     1
    194    196     1
    194    199     1
    194    206     1
    194    209     1
    194    211     1
    195    196     1
    195    198     1
    195    202     1
    195    208     1
    195    209     1
    196    197     1
    196    200     1
    196    207     1
    196    210     1
    197    199     1
    197    201     1
    197    208     1
    197    209     1
    197    211     1
    198    200     1
    198    203     1
    198    204     1
    198    205     1
    199    207     1
    199    212     1
    200    201     1
    200    202     1
    200    209     1
    201    203     1
    201    204     1
    201    205     1
    201    207     1
    201    212     1
    203    206     1
    204    206     1
    207    209     1
    207    211     1

[ angles ]
;    ai     aj     ak funct         c0         c1         c2         c3
      1      2      4     1   109.8000000 391.620000
      1      2      5     1   109.8000000 391.620000
      1      2      8     1   107.5800000 326.350000
      2      4     11     1   109.5600000 392.460000
      2      4     16     1   107.9700000 713.790000
      2      4     17     1   111.5100000 543.080000
      2      5      6     1   111.5100000 543.080000
      2      5      9     1   109.5600000 392.460000
      2      5     12     1   110.1900000 707.930000
      3      6      5     1   111.5100000 543.080000
      3      6     10     1   109.5600000 392.460000
      3      6     14     1   110.1900000 707.930000
      3     16      4     1   112.4800000 554.800000
      3     22     23     1   112.4800000 554.800000
      4      2      5     1   111.5100000 543.080000
      4      2      8     1   109.8000000 391.620000
      4     17     18     1   109.5600000 392.460000
      4     17     19     1   109.5600000 392.460000
      4     17     20     1   110.1900000 707.930000
      5      2      8     1   109.8000000 391.620000
      5      6     10     1   109.5600000 392.460000
      5      6     14     1   110.1900000 707.930000
      5     12     13     1   107.2600000 410.030000
      6      3      7     1   110.2200000 390.790000
      6      3     16     1   107.9700000 713.790000
      6      3     22     1   107.9700000 713.790000
      6      5      9     1   109.5600000 392.460000
      6      5     12     1   110.1900000 707.930000
      6     14     15     1   107.2600000 410.030000
      7      3     16     1   109.5800000 522.160000
      7      3     22     1   109.5800000 522.160000
      9      5     12     1   110.2600000 523.000000
     10      6     14     1   110.2600000 523.000000
     11      4     16     1   109.7800000 522.160000
     11      4     17     1   109.5600000 392.460000
     16      3     22     1   108.2900000 928.010000
     16      4     17     1   107.9700000 713.790000
     17     20     21     1   107.2600000 410.030000
     18     17     19     1   108.4600000 324.680000
     18     17     20     1   110.2600000 523.000000
     19     17     20     1   110.2600000 523.000000
     22     23     25     1   107.9700000 713.790000
     22     23     26     1   107.9700000 713.790000
     22     23     32     1   109.7800000 522.160000
     23     25     24     1   111.5100000 543.080000
     23     25     28     1   109.5600000 392.460000
     23     25     41     1   110.1900000 707.930000
     23     26     30     1   109.5600000 392.460000
     23     26     33     1   107.9700000 713.790000
     23     26     34     1   111.5100000 543.080000
     24     25     28     1   109.5600000 392.460000
     24     25     41     1   110.1900000 707.930000
     24     27     31     1   110.2200000 390.790000
     24     27     33     1   107.9700000 713.790000
     24     27     43     1   107.9700000 713.790000
     24     39     40     1   107.2600000 410.030000
     25     23     26     1   111.5100000 543.080000
     25     23     32     1   109.5600000 392.460000
     25     24     27     1   111.5100000 543.080000
     25     24     29     1   109.5600000 392.460000
     25     24     39     1   110.1900000 707.930000
     25     41     42     1   107.2600000 410.030000
     26     23     32     1   109.5600000 392.460000
     26     33     27     1   112.4800000 554.800000
     26     34     35     1   109.5600000 392.460000
     26     34     36     1   109.5600000 392.460000
     26     34     37     1   110.1900000 707.930000
     27     24     29     1   109.5600000 392.460000
     27     24     39     1   110.1900000 707.930000
     27     43     44     1   112.4800000 554.800000
     28     25     41     1   110.2600000 523.000000
     29     24     39     1   110.2600000 523.000000
     30     26     33     1   109.7800000 522.160000
     30     26     34     1   109.5600000 392.460000
     31     27     33     1   109.5800000 522.160000
     31     27     43     1   109.5800000 522.160000
     33     26     34     1   107.9700000 713.790000
     33     27     43     1   108.2900000 928.010000
     34     37     38     1   107.2600000 410.030000
     35     34     36     1   108.4600000 324.680000
     35     34     37     1   110.2600000 523.000000
     36     34     37     1   110.2600000 523.000000
     43     44     46     1   107.9700000 713.790000
     43     44     47     1   107.9700000 713.790000
     43     44     50     1   109.7800000 522.160000
     44     46     53     1   109.5600000 392.460000
     44     46     58     1   107.9700000 713.790000
     44     46     59     1   111.5100000 543.080000
     44     47     48     1   111.5100000 543.080000
     44     47     51     1   109.5600000 392.460000
     44     47     54     1   110.1900000 707.930000
     45     48     47     1   111.5100000 543.080000
     45     48     52     1   109.5600000 392.460000
     45     48     56     1   110.1900000 707.930000
     45     58     46     1   112.4800000 554.800000
     45     64     65     1   112.4800000 554.800000
     46     44     47     1   111.5100000 543.080000
     46     44     50     1   109.5600000 392.460000
     46     59     60     1   109.5600000 392.460000
     46     59     61     1   109.5600000 392.460000
     46     59     62     1   110.1900000 707.930000
     47     44     50     1   109.5600000 392.460000
     47     48     52     1   109.5600000 392.460000
     47     48     56     1   110.1900000 707.930000
     47     54     55     1   107.2600000 410.030000
     48     45     49     1   110.2200000 390.790000
     48     45     58     1   107.9700000 713.790000
     48     45     64     1   107.9700000 713.790000
     48     47     51     1   109.5600000 392.460000
     48     47     54     1   110.1900000 707.930000
     48     56     57     1   107.2600000 410.030000
     49     45     58     1   109.5800000 522.160000
     49     45     64     1   109.5800000 522.160000
     51     47     54     1   110.2600000 523.000000
     52     48     56     1   110.2600000 523.000000
     53     46     58     1   109.7800000 522.160000
     53     46     59     1   109.5600000 392.460000
     58     45     64     1   108.2900000 928.010000
     58     46     59     1   107.9700000 713.790000
     59     62     63     1   107.2600000 410.030000
     60     59     61     1   108.4600000 324.680000
     60     59     62     1   110.2600000 523.000000
     61     59     62     1   110.2600000 523.000000
     64     65     67     1   107.9700000 713.790000
     64     65     68     1   107.9700000 713.790000
     64     65     74     1   109.7800000 522.160000
     65     67     66     1   111.5100000 543.080000
     65     67     70     1   109.5600000 392.460000
     65     67     83     1   110.1900000 707.930000
     65     68     72     1   109.5600000 392.460000
     65     68     75     1   107.9700000 713.790000
     65     68     76     1   111.5100000 543.080000
     66     67     70     1   109.5600000 392.460000
     66     67     83     1   110.1900000 707.930000
     66     69     73     1   110.2200000 390.790000
     66     69     75     1   107.9700000 713.790000
     66     69     85     1   107.9700000 713.790000
     66     81     82     1   107.2600000 410.030000
     67     65     68     1   111.5100000 543.080000
     67     65     74     1   109.5600000 392.460000
     67     66     69     1   111.5100000 543.080000
     67     66     71     1   109.5600000 392.460000
     67     66     81     1   110.1900000 707.930000
     67     83     84     1   107.2600000 410.030000
     68     65     74     1   109.5600000 392.460000
     68     75     69     1   112.4800000 554.800000
     68     76     77     1   109.5600000 392.460000
     68     76     78     1   109.5600000 392.460000
     68     76     79     1   110.1900000 707.930000
     69     66     71     1   109.5600000 392.460000
     69     66     81     1   110.1900000 707.930000
     69     85     86     1   112.4800000 554.800000
     70     67     83     1   110.2600000 523.000000
     71     66     81     1   110.2600000 523.000000
     72     68     75     1   109.7800000 522.160000
     72     68     76     1   109.5600000 392.460000
     73     69     75     1   109.5800000 522.160000
     73     69     85     1   109.5800000 522.160000
     75     68     76     1   107.9700000 713.790000
     75     69     85     1   108.2900000 928.010000
     76     79     80     1   107.2600000 410.030000
     77     76     78     1   108.4600000 324.680000
     77     76     79     1   110.2600000 523.000000
     78     76     79     1   110.2600000 523.000000
     85     86     88     1   107.9700000 713.790000
     85     86     89     1   107.9700000 713.790000
     85     86     92     1   109.7800000 522.160000
     86     88     95     1   109.5600000 392.460000
     86     88    100     1   107.9700000 713.790000
     86     88    101     1   111.5100000 543.080000
     86     89     90     1   111.5100000 543.080000
     86     89     93     1   109.5600000 392.460000
     86     89     96     1   110.1900000 707.930000
     87     90     89     1   111.5100000 543.080000
     87     90     94     1   109.5600000 392.460000
     87     90     98     1   110.1900000 707.930000
     87    100     88     1   112.4800000 554.800000
     87    106    107     1   112.4800000 554.800000
     88     86     89     1   111.5100000 543.080000
     88     86     92     1   109.5600000 392.460000
     88    101    102     1   109.5600000 392.460000
     88    101    103     1   109.5600000 392.460000
     88    101    104     1   110.1900000 707.930000
     89     86     92     1   109.5600000 392.460000
     89     90     94     1   109.5600000 392.460000
     89     90     98     1   110.1900000 707.930000
     89     96     97     1   107.2600000 410.030000
     90     87     91     1   110.2200000 390.790000
     90     87    100     1   107.9700000 713.790000
     90     87    106     1   107.9700000 713.790000
     90     89     93     1   109.5600000 392.460000
     90     89     96     1   110.1900000 707.930000
     90     98     99     1   107.2600000 410.030000
     91     87    100     1   109.5800000 522.160000
     91     87    106     1   109.5800000 522.160000
     93     89     96     1   110.2600000 523.000000
     94     90     98     1   110.2600000 523.000000
     95     88    100     1   109.7800000 522.160000
     95     88    101     1   109.5600000 392.460000
    100     87    106     1   108.2900000 928.010000
    100     88    101     1   107.9700000 713.790000
    101    104    105     1   107.2600000 410.030000
    102    101    103     1   108.4600000 324.680000
    102    101    104     1   110.2600000 523.000000
    103    101    104     1   110.2600000 523.000000
    106    107    109     1   107.9700000 713.790000
    106    107    110     1   107.9700000 713.790000
    106    107    116     1   109.7800000 522.160000
    107    109    108     1   111.5100000 543.080000
    107    109    112     1   109.5600000 392.460000
    107    109    125     1   110.1900000 707.930000
    107    110    114     1   109.5600000 392.460000
    107    110    117     1   107.9700000 713.790000
    107    110    118     1   111.5100000 543.080000
    108    109    112     1   109.5600000 392.460000
    108    109    125     1   110.1900000 707.930000
    108    111    115     1   110.2200000 390.790000
    108    111    117     1   107.9700000 713.790000
    108    111    127     1   107.9700000 713.790000
    108    123    124     1   107.2600000 410.030000
    109    107    110     1   111.5100000 543.080000
    109    107    116     1   109.5600000 392.460000
    109    108    111     1   111.5100000 543.080000
    109    108    113     1   109.5600000 392.460000
    109    108    123     1   110.1900000 707.930000
    109    125    126     1   107.2600000 410.030000
    110    107    116     1   109.5600000 392.460000
    110    117    111     1   112.4800000 554.800000
    110    118    119     1   109.5600000 392.460000
    110    118    120     1   109.5600000 392.460000
    110    118    121     1   110.1900000 707.930000
    111    108    113     1   109.5600000 392.460000
    111    108    123     1   110.1900000 707.930000
    111    127    128     1   112.4800000 554.800000
    112    109    125     1   110.2600000 523.000000
    113    108    123     1   110.2600000 523.000000
    114    110    117     1   109.7800000 522.160000
    114    110    118     1   109.5600000 392.460000
    115    111    117     1   109.5800000 522.160000
    115    111    127     1   109.5800000 522.160000
    117    110    118     1   107.9700000 713.790000
    117    111    127     1   108.2900000 928.010000
    118    121    122     1   107.2600000 410.030000
    119    118    120     1   108.4600000 324.680000
    119    118    121     1   110.2600000 523.000000
    120    118    121     1   110.2600000 523.000000
    127    128    130     1   107.9700000 713.790000
    127    128    131     1   107.9700000 713.790000
    127    128    134     1   109.7800000 522.160000
    128    130    137     1   109.5600000 392.460000
    128    130    142     1   107.9700000 713.790000
    128    130    143     1   111.5100000 543.080000
    128    131    132     1   111.5100000 543.080000
    128    131    135     1   109.5600000 392.460000
    128    131    138     1   110.1900000 707.930000
    129    132    131     1   111.5100000 543.080000
    129    132    136     1   109.5600000 392.460000
    129    132    140     1   110.1900000 707.930000
    129    142    130     1   112.4800000 554.800000
    129    148    149     1   112.4800000 554.800000
    130    128    131     1   111.5100000 543.080000
    130    128    134     1   109.5600000 392.460000
    130    143    144     1   109.5600000 392.460000
    130    143    145     1   109.5600000 392.460000
    130    143    146     1   110.1900000 707.930000
    131    128    134     1   109.5600000 392.460000
    131    132    136     1   109.5600000 392.460000
    131    132    140     1   110.1900000 707.930000
    131    138    139     1   107.2600000 410.030000
    132    129    133     1   110.2200000 390.790000
    132    129    142     1   107.9700000 713.790000
    132    129    148     1   107.9700000 713.790000
    132    131    135     1   109.5600000 392.460000
    132    131    138     1   110.1900000 707.930000
    132    140    141     1   107.2600000 410.030000
    133    129    142     1   109.5800000 522.160000
    133    129    148     1   109.5800000 522.160000
    135    131    138     1   110.2600000 523.000000
    136    132    140     1   110.2600000 523.000000
    137    130    142     1   109.7800000 522.160000
    137    130    143     1   109.5600000 392.460000
    142    129    148     1   108.2900000 928.010000
    142    130    143     1   107.9700000 713.790000
    143    146    147     1   107.2600000 410.030000
    144    143    145     1   108.4600000 324.680000
    144    143    146     1   110.2600000 523.000000
    145    143    146     1   110.2600000 523.000000
    148    149    151     1   107.9700000 713.790000
    148    149    152     1   107.9700000 713.790000
    148    149    158     1   109.7800000 522.160000
    149    151    150     1   111.5100000 543.080000
    149    151    154     1   109.5600000 392.460000
    149    151    167     1   110.1900000 707.930000
    149    152    156     1   109.5600000 392.460000
    149    152    159     1   107.9700000 713.790000
    149    152    160     1   111.5100000 543.080000
    150    151    154     1   109.5600000 392.460000
    150    151    167     1   110.1900000 707.930000
    150    153    157     1   110.2200000 390.790000
    150    153    159     1   107.9700000 713.790000
    150    153    169     1   107.9700000 713.790000
    150    165    166     1   107.2600000 410.030000
    151    149    152     1   111.5100000 543.080000
    151    149    158     1   109.5600000 392.460000
    151    150    153     1   111.5100000 543.080000
    151    150    155     1   109.5600000 392.460000
    151    150    165     1   110.1900000 707.930000
    151    167    168     1   107.2600000 410.030000
    152    149    158     1   109.5600000 392.460000
    152    159    153     1   112.4800000 554.800000
    152    160    161     1   109.5600000 392.460000
    152    160    162     1   109.5600000 392.460000
    152    160    163     1   110.1900000 707.930000
    153    150    155     1   109.5600000 392.460000
    153    150    165     1   110.1900000 707.930000
    153    169    170     1   112.4800000 554.800000
    154    151    167     1   110.2600000 523.000000
    155    150    165     1   110.2600000 523.000000
    156    152    159     1   109.7800000 522.160000
    156    152    160     1   109.5600000 392.460000
    157    153    159     1   109.5800000 522.160000
    157    153    169     1   109.5800000 522.160000
    159    152    160     1   107.9700000 713.790000
    159    153    169     1   108.2900000 928.010000
    160    163    164     1   107.2600000 410.030000
    161    160    162     1   108.4600000 324.680000
    161    160    163     1   110.2600000 523.000000
    162    160    163     1   110.2600000 523.000000
    169    170    172     1   107.9700000 713.790000
    169    170    173     1   107.9700000 713.790000
    169    170    176     1   109.7800000 522.160000
    170    172    179     1   109.5600000 392.460000
    170    172    184     1   107.9700000 713.790000
    170    172    185     1   111.5100000 543.080000
    170    173    174     1   111.5100000 543.080000
    170    173    177     1   109.5600000 392.460000
    170    173    180     1   110.1900000 707.930000
    171    174    173     1   111.5100000 543.080000
    171    174    178     1   109.5600000 392.460000
    171    174    182     1   110.1900000 707.930000
    171    184    172     1   112.4800000 554.800000
    171    190    191     1   112.4800000 554.800000
    172    170    173     1   111.5100000 543.080000
    172    170    176     1   109.5600000 392.460000
    172    185    186     1   109.5600000 392.460000
    172    185    187     1   109.5600000 392.460000
    172    185    188     1   110.1900000 707.930000
    173    170    176     1   109.5600000 392.460000
    173    174    178     1   109.5600000 392.460000
    173    174    182     1   110.1900000 707.930000
    173    180    181     1   107.2600000 410.030000
    174    171    175     1   110.2200000 390.790000
    174    171    184     1   107.9700000 713.790000
    174    171    190     1   107.9700000 713.790000
    174    173    177     1   109.5600000 392.460000
    174    173    180     1   110.1900000 707.930000
    174    182    183     1   107.2600000 410.030000
    175    171    184     1   109.5800000 522.160000
    175    171    190     1   109.5800000 522.160000
    177    173    180     1   110.2600000 523.000000
    178    174    182     1   110.2600000 523.000000
    179    172    184     1   109.7800000 522.160000
    179    172    185     1   109.5600000 392.460000
    184    171    190     1   108.2900000 928.010000
    184    172    185     1   107.9700000 713.790000
    185    188    189     1   107.2600000 410.030000
    186    185    187     1   108.4600000 324.680000
    186    185    188     1   110.2600000 523.000000
    187    185    188     1   110.2600000 523.000000
    190    191    193     1   107.9700000 713.790000
    190    191    194     1   107.9700000 713.790000
    190    191    200     1   109.7800000 522.160000
    191    193    192     1   111.5100000 543.080000
    191    193    196     1   109.5600000 392.460000
    191    193    209     1   110.1900000 707.930000
    191    194    198     1   109.5600000 392.460000
    191    194    201     1   107.9700000 713.790000
    191    194    202     1   111.5100000 543.080000
    192    193    196     1   109.5600000 392.460000
    192    193    209     1   110.1900000 707.930000
    192    195    199     1   110.2200000 390.790000
    192    195    201     1   107.9700000 713.790000
    192    195    211     1   110.1900000 707.930000
    192    207    208     1   107.2600000 410.030000
    193    191    194     1   111.5100000 543.080000
    193    191    200     1   109.5600000 392.460000
    193    192    195     1   111.5100000 543.080000
    193    192    197     1   109.5600000 392.460000
    193    192    207     1   110.1900000 707.930000
    193    209    210     1   107.2600000 410.030000
    194    191    200     1   109.5600000 392.460000
    194    201    195     1   112.4800000 554.800000
    194    202    203     1   109.5600000 392.460000
    194    202    204     1   109.5600000 392.460000
    194    202    205     1   110.1900000 707.930000
    195    192    197     1   109.5600000 392.460000
    195    192    207     1   110.1900000 707.930000
    195    211    212     1   107.2600000 410.030000
    196    193    209     1   110.2600000 523.000000
    197    192    207     1   110.2600000 523.000000
    198    194    201     1   109.7800000 522.160000
    198    194    202     1   109.5600000 392.460000
    199    195    201     1   109.5800000 522.160000
    199    195    211     1   109.4300000 525.510000
    201    194    202     1   107.9700000 713.790000
    201    195    211     1   109.3800000 926.340000
    202    205    206     1   107.2600000 410.030000
    203    202    204     1   108.4600000 324.680000
    203    202    205     1   110.2600000 523.000000
    204    202    205     1   110.2600000 523.000000

[ dihedrals ]
;    ai     aj     ak     al funct         c0         c1         c2         c3         c4         c5
      1      2      4     11     9  0.000000  0.650840  3
      1      2      4     16     9  0.000000  0.000000  0
      1      2      4     16     9  0.00000  1.0460000  1
      1      2      4     17     9  0.000000  0.334720  3
      1      2      5      6     9  0.000000  0.334720  3
      1      2      5      9     9  0.000000  0.650840  3
      1      2      5     12     9  0.000000  0.753120  3
      1      2      5     12     9  0.00000  2.1338400  1
      2      4     16      3     9  0.000000  0.000000  0
      2      4     16      3     9  0.00000  0.6694400  2
      2      4     16      3     9  0.00000  1.0041600  3
      2      4     17     18     9  0.000000  0.650840  3
      2      4     17     19     9  0.000000  0.650840  3
      2      4     17     20     9  0.000000  0.878640  3
      2      5      6      3     9  0.000000  0.460240  1
      2      5      6      3     9  0.00000  0.5439200  3
      2      5      6      3     9  180.00000  1.2133600  2
      2      5      6     10     9  0.000000  0.650840  3
      2      5      6     14     9  0.000000  0.878640  3
      2      5     12     13     9  0.000000  0.000000  0
      3      6      5      9     9  0.000000  0.650840  3
      3      6      5     12     9  0.000000  0.878640  3
      3      6     14     15     9  0.000000  0.000000  0
      3     16      4     11     9  0.000000  1.410010  3
      3     16      4     17     9  0.000000  0.000000  0
      3     16      4     17     9  0.00000  0.6694400  2
      3     16      4     17     9  0.00000  1.0041600  3
      3     22     23     25     9  0.000000  0.000000  0
      3     22     23     25     9  0.00000  0.6694400  2
      3     22     23     25     9  0.00000  1.0041600  3
      3     22     23     26     9  0.000000  0.000000  0
      3     22     23     26     9  0.00000  0.6694400  2
      3     22     23     26     9  0.00000  1.0041600  3
      3     22     23     32     9  0.000000  1.410010  3
      4      2      5      6     9  0.000000  0.460240  1
      4      2      5      6     9  0.00000  0.5439200  3
      4      2      5      6     9  180.00000  1.2133600  2
      4      2      5      9     9  0.000000  0.650840  3
      4      2      5     12     9  0.000000  0.878640  3
      4     16      3      6     9  0.000000  0.000000  0
      4     16      3      6     9  0.00000  0.6694400  2
      4     16      3      6     9  0.00000  1.0041600  3
      4     16      3      7     9  0.000000  1.603870  3
      4     16      3     22     9  0.000000  5.188160  2
      4     16      3     22     9  180.00000  0.0000000  3
      4     16      3     22     9  180.00000  4.0584800  1
      4     17     20     21     9  0.000000  0.000000  0
      5      2      4     11     9  0.000000  0.650840  3
      5      2      4     16     9  0.000000  0.650840  3
      5      2      4     17     9  0.000000  0.460240  1
      5      2      4     17     9  0.00000  0.5439200  3
      5      2      4     17     9  180.00000  1.2133600  2
      5      6      3      7     9  0.000000  0.650840  3
      5      6      3     16     9  0.000000  0.650840  3
      5      6      3     22     9  0.000000  0.650840  3
      5      6     14     15     9  0.000000  0.000000  0
      6      3     22     23     9  0.000000  0.000000  0
      6      3     22     23     9  0.00000  0.6694400  2
      6      3     22     23     9  0.00000  1.0041600  3
      6      5      2      8     9  0.000000  0.334720  3
      6      5     12     13     9  0.000000  0.000000  0
      7      3      6     10     9  0.000000  0.650840  3
      7      3      6     14     9  0.000000  0.650840  3
      7      3     22     23     9  0.000000  1.603870  3
      8      2      4     11     9  0.000000  0.650840  3
      8      2      4     16     9  0.000000  0.000000  0
      8      2      4     16     9  0.00000  1.0460000  1
      8      2      4     17     9  0.000000  0.334720  3
      8      2      5      9     9  0.000000  0.650840  3
      8      2      5     12     9  0.000000  0.753120  3
      8      2      5     12     9  0.00000  2.1338400  1
      9      5      6     10     9  0.000000  0.650840  3
      9      5      6     14     9  0.000000  0.000000  0
      9      5      6     14     9  0.00000  1.0460000  1
      9      5     12     13     9  0.000000  0.472790  3
     10      6      3     16     9  0.000000  0.000000  0
     10      6      3     16     9  0.00000  1.0460000  1
     10      6      3     22     9  0.000000  0.000000  0
     10      6      3     22     9  0.00000  1.0460000  1
     10      6      5     12     9  0.000000  0.000000  0
     10      6      5     12     9  0.00000  1.0460000  1
     10      6     14     15     9  0.000000  0.472790  3
     11      4     17     18     9  0.000000  0.650840  3
     11      4     17     19     9  0.000000  0.650840  3
     11      4     17     20     9  0.000000  0.000000  0
     11      4     17     20     9  0.00000  1.0460000  1
     12      5      6     14     9  0.000000  3.765600  3
     12      5      6     14     9  0.00000  4.7279200  2
     14      6      3     16     9  0.000000  0.000000  0
     14      6      3     16     9  0.00000  4.2258400  3
     14      6      3     16     9  180.00000  0.0836800  1
     14      6      3     22     9  0.000000  0.000000  0
     14      6      3     22     9  0.00000  4.2258400  3
     14      6      3     22     9  180.00000  0.0836800  1
     16      3     22     23     9  0.000000  5.188160  2
     16      3     22     23     9  180.00000  0.0000000  3
     16      3     22     23     9  180.00000  4.0584800  1
     16      4     17     18     9  0.000000  0.000000  0
     16      4     17     18     9  0.00000  1.0460000  1
     16      4     17     19     9  0.000000  0.000000  0
     16      4     17     19     9  0.00000  1.0460000  1
     16      4     17     20     9  0.000000  0.000000  0
     16      4     17     20     9  0.00000  4.2258400  3
     16      4     17     20     9  180.00000  0.0836800  1
     18     17     20     21     9  0.000000  0.472790  3
     19     17     20     21     9  0.000000  0.472790  3
     22     23     25     24     9  0.000000  0.650840  3
     22     23     25     28     9  0.000000  0.000000  0
     22     23     25     28     9  0.00000  1.0460000  1
     22     23     25     41     9  0.000000  0.000000  0
     22     23     25     41     9  0.00000  4.2258400  3
     22     23     25     41     9  180.00000  0.0836800  1
     22     23     26     30     9  0.000000  0.000000  0
     22     23     26     30     9  0.00000  1.0460000  1
     22     23     26     33     9  0.000000  0.000000  0
     22     23     26     33     9  180.00000  0.0000000  2
     22     23     26     33     9  180.00000  0.7112800  1
     22     23     26     34     9  0.000000  0.650840  3
     23     25     24     27     9  0.000000  0.460240  1
     23     25     24     27     9  0.00000  0.5439200  3
     23     25     24     27     9  180.00000  1.2133600  2
     23     25     24     29     9  0.000000  0.650840  3
     23     25     24     39     9  0.000000  0.878640  3
     23     25     41     42     9  0.000000  0.000000  0
     23     26     33     27     9  0.000000  0.000000  0
     23     26     33     27     9  0.00000  0.6694400  2
     23     26     33     27     9  0.00000  1.0041600  3
     23     26     34     35     9  0.000000  0.650840  3
     23     26     34     36     9  0.000000  0.650840  3
     23     26     34     37     9  0.000000  0.878640  3
     24     25     23     26     9  0.000000  0.460240  1
     24     25     23     26     9  0.00000  0.5439200  3
     24     25     23     26     9  180.00000  1.2133600  2
     24     25     23     32     9  0.000000  0.650840  3
     24     25     41     42     9  0.000000  0.000000  0
     24     27     33     26     9  0.000000  0.000000  0
     24     27     33     26     9  0.00000  0.6694400  2
     24     27     33     26     9  0.00000  1.0041600  3
     24     27     43     44     9  0.000000  0.000000  0
     24     27     43     44     9  0.00000  0.6694400  2
     24     27     43     44     9  0.00000  1.0041600  3
     25     23     26     30     9  0.000000  0.650840  3
     25     23     26     33     9  0.000000  0.650840  3
     25     23     26     34     9  0.000000  0.460240  1
     25     23     26     34     9  0.00000  0.5439200  3
     25     23     26     34     9  180.00000  1.2133600  2
     25     24     27     31     9  0.000000  0.650840  3
     25     24     27     33     9  0.000000  0.650840  3
     25     24     27     43     9  0.000000  0.650840  3
     25     24     39     40     9  0.000000  0.000000  0
     26     23     25     28     9  0.000000  0.650840  3
     26     23     25     41     9  0.000000  0.878640  3
     26     33     27     31     9  0.000000  1.603870  3
     26     33     27     43     9  0.000000  5.188160  2
     26     33     27     43     9  180.00000  0.0000000  3
     26     33     27     43     9  180.00000  4.0584800  1
     26     34     37     38     9  0.000000  0.000000  0
     27     24     25     28     9  0.000000  0.650840  3
     27     24     25     41     9  0.000000  0.878640  3
     27     24     39     40     9  0.000000  0.000000  0
     27     33     26     30     9  0.000000  1.410010  3
     27     33     26     34     9  0.000000  0.000000  0
     27     33     26     34     9  0.00000  0.6694400  2
     27     33     26     34     9  0.00000  1.0041600  3
     27     43     44     46     9  0.000000  0.000000  0
     27     43     44     46     9  0.00000  0.6694400  2
     27     43     44     46     9  0.00000  1.0041600  3
     27     43     44     47     9  0.000000  0.000000  0
     27     43     44     47     9  0.00000  0.6694400  2
     27     43     44     47     9  0.00000  1.0041600  3
     27     43     44     50     9  0.000000  1.410010  3
     28     25     23     32     9  0.000000  0.650840  3
     28     25     24     29     9  0.000000  0.650840  3
     28     25     24     39     9  0.000000  0.000000  0
     28     25     24     39     9  0.00000  1.0460000  1
     28     25     41     42     9  0.000000  0.472790  3
     29     24     25     41     9  0.000000  0.000000  0
     29     24     25     41     9  0.00000  1.0460000  1
     29     24     27     31     9  0.000000  0.650840  3
     29     24     27     33     9  0.000000  0.000000  0
     29     24     27     33     9  0.00000  1.0460000  1
     29     24     27     43     9  0.000000  0.000000  0
     29     24     27     43     9  0.00000  1.0460000  1
     29     24     39     40     9  0.000000  0.472790  3
     30     26     23     32     9  0.000000  0.650840  3
     30     26     34     35     9  0.000000  0.650840  3
     30     26     34     36     9  0.000000  0.650840  3
     30     26     34     37     9  0.000000  0.000000  0
     30     26     34     37     9  0.00000  1.0460000  1
     31     27     24     39     9  0.000000  0.650840  3
     31     27     43     44     9  0.000000  1.603870  3
     32     23     25     41     9  0.000000  0.000000  0
     32     23     25     41     9  0.00000  1.0460000  1
     32     23     26     33     9  0.000000  0.000000  0
     32     23     26     33     9  0.00000  1.0460000  1
     32     23     26     34     9  0.000000  0.650840  3
     33     26     34     35     9  0.000000  0.000000  0
     33     26     34     35     9  0.00000  1.0460000  1
     33     26     34     36     9  0.000000  0.000000  0
     33     26     34     36     9  0.00000  1.0460000  1
     33     26     34     37     9  0.000000  0.000000  0
     33     26     34     37     9  0.00000  4.2258400  3
     33     26     34     37     9  180.00000  0.0836800  1
     33     27     24     39     9  0.000000  0.000000  0
     33     27     24     39     9  0.00000  4.2258400  3
     33     27     24     39     9  180.00000  0.0836800  1
     33     27     43     44     9  0.000000  5.188160  2
     33     27     43     44     9  180.00000  0.0000000  3
     33     27     43     44     9  180.00000  4.0584800  1
     35     34     37     38     9  0.000000  0.472790  3
     36     34     37     38     9  0.000000  0.472790  3
     39     24     25     41     9  0.000000  3.765600  3
     39     24     25     41     9  0.00000  4.7279200  2
     39     24     27     43     9  0.000000  0.000000  0
     39     24     27     43     9  0.00000  4.2258400  3
     39     24     27     43     9  180.00000  0.0836800  1
     43     44     46     53     9  0.000000  0.000000  0
     43     44     46     53     9  0.00000  1.0460000  1
     43     44     46     58     9  0.000000  0.000000  0
     43     44     46     58     9  180.00000  0.0000000  2
     43     44     46     58     9  180.00000  0.7112800  1
     43     44     46     59     9  0.000000  0.650840  3
     43     44     47     48     9  0.000000  0.650840  3
     43     44     47     51     9  0.000000  0.000000  0
     43     44     47     51     9  0.00000  1.0460000  1
     43     44     47     54     9  0.000000  0.000000  0
     43     44     47     54     9  0.00000  4.2258400  3
     43     44     47     54     9  180.00000  0.0836800  1
     44     46     58     45     9  0.000000  0.000000  0
     44     46     58     45     9  0.00000  0.6694400  2
     44     46     58     45     9  0.00000  1.0041600  3
     44     46     59     60     9  0.000000  0.650840  3
     44     46     59     61     9  0.000000  0.650840  3
     44     46     59     62     9  0.000000  0.878640  3
     44     47     48     45     9  0.000000  0.460240  1
     44     47     48     45     9  0.00000  0.5439200  3
     44     47     48     45     9  180.00000  1.2133600  2
     44     47     48     52     9  0.000000  0.650840  3
     44     47     48     56     9  0.000000  0.878640  3
     44     47     54     55     9  0.000000  0.000000  0
     45     48     47     51     9  0.000000  0.650840  3
     45     48     47     54     9  0.000000  0.878640  3
     45     48     56     57     9  0.000000  0.000000  0
     45     58     46     53     9  0.000000  1.410010  3
     45     58     46     59     9  0.000000  0.000000  0
     45     58     46     59     9  0.00000  0.6694400  2
     45     58     46     59     9  0.00000  1.0041600  3
     45     64     65     67     9  0.000000  0.000000  0
     45     64     65     67     9  0.00000  0.6694400  2
     45     64     65     67     9  0.00000  1.0041600  3
     45     64     65     68     9  0.000000  0.000000  0
     45     64     65     68     9  0.00000  0.6694400  2
     45     64     65     68     9  0.00000  1.0041600  3
     45     64     65     74     9  0.000000  1.410010  3
     46     44     47     48     9  0.000000  0.460240  1
     46     44     47     48     9  0.00000  0.5439200  3
     46     44     47     48     9  180.00000  1.2133600  2
     46     44     47     51     9  0.000000  0.650840  3
     46     44     47     54     9  0.000000  0.878640  3
     46     58     45     48     9  0.000000  0.000000  0
     46     58     45     48     9  0.00000  0.6694400  2
     46     58     45     48     9  0.00000  1.0041600  3
     46     58     45     49     9  0.000000  1.603870  3
     46     58     45     64     9  0.000000  5.188160  2
     46     58     45     64     9  180.00000  0.0000000  3
     46     58     45     64     9  180.00000  4.0584800  1
     46     59     62     63     9  0.000000  0.000000  0
     47     44     46     53     9  0.000000  0.650840  3
     47     44     46     58     9  0.000000  0.650840  3
     47     44     46     59     9  0.000000  0.460240  1
     47     44     46     59     9  0.00000  0.5439200  3
     47     44     46     59     9  180.00000  1.2133600  2
     47     48     45     49     9  0.000000  0.650840  3
     47     48     45     58     9  0.000000  0.650840  3
     47     48     45     64     9  0.000000  0.650840  3
     47     48     56     57     9  0.000000  0.000000  0
     48     45     64     65     9  0.000000  0.000000  0
     48     45     64     65     9  0.00000  0.6694400  2
     48     45     64     65     9  0.00000  1.0041600  3
     48     47     44     50     9  0.000000  0.650840  3
     48     47     54     55     9  0.000000  0.000000  0
     49     45     48     52     9  0.000000  0.650840  3
     49     45     48     56     9  0.000000  0.650840  3
     49     45     64     65     9  0.000000  1.603870  3
     50     44     46     53     9  0.000000  0.650840  3
     50     44     46     58     9  0.000000  0.000000  0
     50     44     46     58     9  0.00000  1.0460000  1
     50     44     46     59     9  0.000000  0.650840  3
     50     44     47     51     9  0.000000  0.650840  3
     50     44     47     54     9  0.000000  0.000000  0
     50     44     47     54     9  0.00000  1.0460000  1
     51     47     48     52     9  0.000000  0.650840  3
     51     47     48     56     9  0.000000  0.000000  0
     51     47     48     56     9  0.00000  1.0460000  1
     51     47     54     55     9  0.000000  0.472790  3
     52     48     45     58     9  0.000000  0.000000  0
     52     48     45     58     9  0.00000  1.0460000  1
     52     48     45     64     9  0.000000  0.000000  0
     52     48     45     64     9  0.00000  1.0460000  1
     52     48     47     54     9  0.000000  0.000000  0
     52     48     47     54     9  0.00000  1.0460000  1
     52     48     56     57     9  0.000000  0.472790  3
     53     46     59     60     9  0.000000  0.650840  3
     53     46     59     61     9  0.000000  0.650840  3
     53     46     59     62     9  0.000000  0.000000  0
     53     46     59     62     9  0.00000  1.0460000  1
     54     47     48     56     9  0.000000  3.765600  3
     54     47     48     56     9  0.00000  4.7279200  2
     56     48     45     58     9  0.000000  0.000000  0
     56     48     45     58     9  0.00000  4.2258400  3
     56     48     45     58     9  180.00000  0.0836800  1
     56     48     45     64     9  0.000000  0.000000  0
     56     48     45     64     9  0.00000  4.2258400  3
     56     48     45     64     9  180.00000  0.0836800  1
     58     45     64     65     9  0.000000  5.188160  2
     58     45     64     65     9  180.00000  0.0000000  3
     58     45     64     65     9  180.00000  4.0584800  1
     58     46     59     60     9  0.000000  0.000000  0
     58     46     59     60     9  0.00000  1.0460000  1
     58     46     59     61     9  0.000000  0.000000  0
     58     46     59     61     9  0.00000  1.0460000  1
     58     46     59     62     9  0.000000  0.000000  0
     58     46     59     62     9  0.00000  4.2258400  3
     58     46     59     62     9  180.00000  0.0836800  1
     60     59     62     63     9  0.000000  0.472790  3
     61     59     62     63     9  0.000000  0.472790  3
     64     65     67     66     9  0.000000  0.650840  3
     64     65     67     70     9  0.000000  0.000000  0
     64     65     67     70     9  0.00000  1.0460000  1
     64     65     67     83     9  0.000000  0.000000  0
     64     65     67     83     9  0.00000  4.2258400  3
     64     65     67     83     9  180.00000  0.0836800  1
     64     65     68     72     9  0.000000  0.000000  0
     64     65     68     72     9  0.00000  1.0460000  1
     64     65     68     75     9  0.000000  0.000000  0
     64     65     68     75     9  180.00000  0.0000000  2
     64     65     68     75     9  180.00000  0.7112800  1
     64     65     68     76     9  0.000000  0.650840  3
     65     67     66     69     9  0.000000  0.460240  1
     65     67     66     69     9  0.00000  0.5439200  3
     65     67     66     69     9  180.00000  1.2133600  2
     65     67     66     71     9  0.000000  0.650840  3
     65     67     66     81     9  0.000000  0.878640  3
     65     67     83     84     9  0.000000  0.000000  0
     65     68     75     69     9  0.000000  0.000000  0
     65     68     75     69     9  0.00000  0.6694400  2
     65     68     75     69     9  0.00000  1.0041600  3
     65     68     76     77     9  0.000000  0.650840  3
     65     68     76     78     9  0.000000  0.650840  3
     65     68     76     79     9  0.000000  0.878640  3
     66     67     65     68     9  0.000000  0.460240  1
     66     67     65     68     9  0.00000  0.5439200  3
     66     67     65     68     9  180.00000  1.2133600  2
     66     67     65     74     9  0.000000  0.650840  3
     66     67     83     84     9  0.000000  0.000000  0
     66     69     75     68     9  0.000000  0.000000  0
     66     69     75     68     9  0.00000  0.6694400  2
     66     69     75     68     9  0.00000  1.0041600  3
     66     69     85     86     9  0.000000  0.000000  0
     66     69     85     86     9  0.00000  0.6694400  2
     66     69     85     86     9  0.00000  1.0041600  3
     67     65     68     72     9  0.000000  0.650840  3
     67     65     68     75     9  0.000000  0.650840  3
     67     65     68     76     9  0.000000  0.460240  1
     67     65     68     76     9  0.00000  0.5439200  3
     67     65     68     76     9  180.00000  1.2133600  2
     67     66     69     73     9  0.000000  0.650840  3
     67     66     69     75     9  0.000000  0.650840  3
     67     66     69     85     9  0.000000  0.650840  3
     67     66     81     82     9  0.000000  0.000000  0
     68     65     67     70     9  0.000000  0.650840  3
     68     65     67     83     9  0.000000  0.878640  3
     68     75     69     73     9  0.000000  1.603870  3
     68     75     69     85     9  0.000000  5.188160  2
     68     75     69     85     9  180.00000  0.0000000  3
     68     75     69     85     9  180.00000  4.0584800  1
     68     76     79     80     9  0.000000  0.000000  0
     69     66     67     70     9  0.000000  0.650840  3
     69     66     67     83     9  0.000000  0.878640  3
     69     66     81     82     9  0.000000  0.000000  0
     69     75     68     72     9  0.000000  1.410010  3
     69     75     68     76     9  0.000000  0.000000  0
     69     75     68     76     9  0.00000  0.6694400  2
     69     75     68     76     9  0.00000  1.0041600  3
     69     85     86     88     9  0.000000  0.000000  0
     69     85     86     88     9  0.00000  0.6694400  2
     69     85     86     88     9  0.00000  1.0041600  3
     69     85     86     89     9  0.000000  0.000000  0
     69     85     86     89     9  0.00000  0.6694400  2
     69     85     86     89     9  0.00000  1.0041600  3
     69     85     86     92     9  0.000000  1.410010  3
     70     67     65     74     9  0.000000  0.650840  3
     70     67     66     71     9  0.000000  0.650840  3
     70     67     66     81     9  0.000000  0.000000  0
     70     67     66     81     9  0.00000  1.0460000  1
     70     67     83     84     9  0.000000  0.472790  3
     71     66     67     83     9  0.000000  0.000000  0
     71     66     67     83     9  0.00000  1.0460000  1
     71     66     69     73     9  0.000000  0.650840  3
     71     66     69     75     9  0.000000  0.000000  0
     71     66     69     75     9  0.00000  1.0460000  1
     71     66     69     85     9  0.000000  0.000000  0
     71     66     69     85     9  0.00000  1.0460000  1
     71     66     81     82     9  0.000000  0.472790  3
     72     68     65     74     9  0.000000  0.650840  3
     72     68     76     77     9  0.000000  0.650840  3
     72     68     76     78     9  0.000000  0.650840  3
     72     68     76     79     9  0.000000  0.000000  0
     72     68     76     79     9  0.00000  1.0460000  1
     73     69     66     81     9  0.000000  0.650840  3
     73     69     85     86     9  0.000000  1.603870  3
     74     65     67     83     9  0.000000  0.000000  0
     74     65     67     83     9  0.00000  1.0460000  1
     74     65     68     75     9  0.000000  0.000000  0
     74     65     68     75     9  0.00000  1.0460000  1
     74     65     68     76     9  0.000000  0.650840  3
     75     68     76     77     9  0.000000  0.000000  0
     75     68     76     77     9  0.00000  1.0460000  1
     75     68     76     78     9  0.000000  0.000000  0
     75     68     76     78     9  0.00000  1.0460000  1
     75     68     76     79     9  0.000000  0.000000  0
     75     68     76     79     9  0.00000  4.2258400  3
     75     68     76     79     9  180.00000  0.0836800  1
     75     69     66     81     9  0.000000  0.000000  0
     75     69     66     81     9  0.00000  4.2258400  3
     75     69     66     81     9  180.00000  0.0836800  1
     75     69     85     86     9  0.000000  5.188160  2
     75     69     85     86     9  180.00000  0.0000000  3
     75     69     85     86     9  180.00000  4.0584800  1
     77     76     79     80     9  0.000000  0.472790  3
     78     76     79     80     9  0.000000  0.472790  3
     81     66     67     83     9  0.000000  3.765600  3
     81     66     67     83     9  0.00000  4.7279200  2
     81     66     69     85     9  0.000000  0.000000  0
     81     66     69     85     9  0.00000  4.2258400  3
     81     66     69     85     9  180.00000  0.0836800  1
     85     86     88     95     9  0.000000  0.000000  0
     85     86     88     95     9  0.00000  1.0460000  1
     85     86     88    100     9  0.000000  0.000000  0
     85     86     88    100     9  180.00000  0.0000000  2
     85     86     88    100     9  180.00000  0.7112800  1
     85     86     88    101     9  0.000000  0.650840  3
     85     86     89     90     9  0.000000  0.650840  3
     85     86     89     93     9  0.000000  0.000000  0
     85     86     89     93     9  0.00000  1.0460000  1
     85     86     89     96     9  0.000000  0.000000  0
     85     86     89     96     9  0.00000  4.2258400  3
     85     86     89     96     9  180.00000  0.0836800  1
     86     88    100     87     9  0.000000  0.000000  0
     86     88    100     87     9  0.00000  0.6694400  2
     86     88    100     87     9  0.00000  1.0041600  3
     86     88    101    102     9  0.000000  0.650840  3
     86     88    101    103     9  0.000000  0.650840  3
     86     88    101    104     9  0.000000  0.878640  3
     86     89     90     87     9  0.000000  0.460240  1
     86     89     90     87     9  0.00000  0.5439200  3
     86     89     90     87     9  180.00000  1.2133600  2
     86     89     90     94     9  0.000000  0.650840  3
     86     89     90     98     9  0.000000  0.878640  3
     86     89     96     97     9  0.000000  0.000000  0
     87     90     89     93     9  0.000000  0.650840  3
     87     90     89     96     9  0.000000  0.878640  3
     87     90     98     99     9  0.000000  0.000000  0
     87    100     88     95     9  0.000000  1.410010  3
     87    100     88    101     9  0.000000  0.000000  0
     87    100     88    101     9  0.00000  0.6694400  2
     87    100     88    101     9  0.00000  1.0041600  3
     87    106    107    109     9  0.000000  0.000000  0
     87    106    107    109     9  0.00000  0.6694400  2
     87    106    107    109     9  0.00000  1.0041600  3
     87    106    107    110     9  0.000000  0.000000  0
     87    106    107    110     9  0.00000  0.6694400  2
     87    106    107    110     9  0.00000  1.0041600  3
     87    106    107    116     9  0.000000  1.410010  3
     88     86     89     90     9  0.000000  0.460240  1
     88     86     89     90     9  0.00000  0.5439200  3
     88     86     89     90     9  180.00000  1.2133600  2
     88     86     89     93     9  0.000000  0.650840  3
     88     86     89     96     9  0.000000  0.878640  3
     88    100     87     90     9  0.000000  0.000000  0
     88    100     87     90     9  0.00000  0.6694400  2
     88    100     87     90     9  0.00000  1.0041600  3
     88    100     87     91     9  0.000000  1.603870  3
     88    100     87    106     9  0.000000  5.188160  2
     88    100     87    106     9  180.00000  0.0000000  3
     88    100     87    106     9  180.00000  4.0584800  1
     88    101    104    105     9  0.000000  0.000000  0
     89     86     88     95     9  0.000000  0.650840  3
     89     86     88    100     9  0.000000  0.650840  3
     89     86     88    101     9  0.000000  0.460240  1
     89     86     88    101     9  0.00000  0.5439200  3
     89     86     88    101     9  180.00000  1.2133600  2
     89     90     87     91     9  0.000000  0.650840  3
     89     90     87    100     9  0.000000  0.650840  3
     89     90     87    106     9  0.000000  0.650840  3
     89     90     98     99     9  0.000000  0.000000  0
     90     87    106    107     9  0.000000  0.000000  0
     90     87    106    107     9  0.00000  0.6694400  2
     90     87    106    107     9  0.00000  1.0041600  3
     90     89     86     92     9  0.000000  0.650840  3
     90     89     96     97     9  0.000000  0.000000  0
     91     87     90     94     9  0.000000  0.650840  3
     91     87     90     98     9  0.000000  0.650840  3
     91     87    106    107     9  0.000000  1.603870  3
     92     86     88     95     9  0.000000  0.650840  3
     92     86     88    100     9  0.000000  0.000000  0
     92     86     88    100     9  0.00000  1.0460000  1
     92     86     88    101     9  0.000000  0.650840  3
     92     86     89     93     9  0.000000  0.650840  3
     92     86     89     96     9  0.000000  0.000000  0
     92     86     89     96     9  0.00000  1.0460000  1
     93     89     90     94     9  0.000000  0.650840  3
     93     89     90     98     9  0.000000  0.000000  0
     93     89     90     98     9  0.00000  1.0460000  1
     93     89     96     97     9  0.000000  0.472790  3
     94     90     87    100     9  0.000000  0.000000  0
     94     90     87    100     9  0.00000  1.0460000  1
     94     90     87    106     9  0.000000  0.000000  0
     94     90     87    106     9  0.00000  1.0460000  1
     94     90     89     96     9  0.000000  0.000000  0
     94     90     89     96     9  0.00000  1.0460000  1
     94     90     98     99     9  0.000000  0.472790  3
     95     88    101    102     9  0.000000  0.650840  3
     95     88    101    103     9  0.000000  0.650840  3
     95     88    101    104     9  0.000000  0.000000  0
     95     88    101    104     9  0.00000  1.0460000  1
     96     89     90     98     9  0.000000  3.765600  3
     96     89     90     98     9  0.00000  4.7279200  2
     98     90     87    100     9  0.000000  0.000000  0
     98     90     87    100     9  0.00000  4.2258400  3
     98     90     87    100     9  180.00000  0.0836800  1
     98     90     87    106     9  0.000000  0.000000  0
     98     90     87    106     9  0.00000  4.2258400  3
     98     90     87    106     9  180.00000  0.0836800  1
    100     87    106    107     9  0.000000  5.188160  2
    100     87    106    107     9  180.00000  0.0000000  3
    100     87    106    107     9  180.00000  4.0584800  1
    100     88    101    102     9  0.000000  0.000000  0
    100     88    101    102     9  0.00000  1.0460000  1
    100     88    101    103     9  0.000000  0.000000  0
    100     88    101    103     9  0.00000  1.0460000  1
    100     88    101    104     9  0.000000  0.000000  0
    100     88    101    104     9  0.00000  4.2258400  3
    100     88    101    104     9  180.00000  0.0836800  1
    102    101    104    105     9  0.000000  0.472790  3
    103    101    104    105     9  0.000000  0.472790  3
    106    107    109    108     9  0.000000  0.650840  3
    106    107    109    112     9  0.000000  0.000000  0
    106    107    109    112     9  0.00000  1.0460000  1
    106    107    109    125     9  0.000000  0.000000  0
    106    107    109    125     9  0.00000  4.2258400  3
    106    107    109    125     9  180.00000  0.0836800  1
    106    107    110    114     9  0.000000  0.000000  0
    106    107    110    114     9  0.00000  1.0460000  1
    106    107    110    117     9  0.000000  0.000000  0
    106    107    110    117     9  180.00000  0.0000000  2
    106    107    110    117     9  180.00000  0.7112800  1
    106    107    110    118     9  0.000000  0.650840  3
    107    109    108    111     9  0.000000  0.460240  1
    107    109    108    111     9  0.00000  0.5439200  3
    107    109    108    111     9  180.00000  1.2133600  2
    107    109    108    113     9  0.000000  0.650840  3
    107    109    108    123     9  0.000000  0.878640  3
    107    109    125    126     9  0.000000  0.000000  0
    107    110    117    111     9  0.000000  0.000000  0
    107    110    117    111     9  0.00000  0.6694400  2
    107    110    117    111     9  0.00000  1.0041600  3
    107    110    118    119     9  0.000000  0.650840  3
    107    110    118    120     9  0.000000  0.650840  3
    107    110    118    121     9  0.000000  0.878640  3
    108    109    107    110     9  0.000000  0.460240  1
    108    109    107    110     9  0.00000  0.5439200  3
    108    109    107    110     9  180.00000  1.2133600  2
    108    109    107    116     9  0.000000  0.650840  3
    108    109    125    126     9  0.000000  0.000000  0
    108    111    117    110     9  0.000000  0.000000  0
    108    111    117    110     9  0.00000  0.6694400  2
    108    111    117    110     9  0.00000  1.0041600  3
    108    111    127    128     9  0.000000  0.000000  0
    108    111    127    128     9  0.00000  0.6694400  2
    108    111    127    128     9  0.00000  1.0041600  3
    109    107    110    114     9  0.000000  0.650840  3
    109    107    110    117     9  0.000000  0.650840  3
    109    107    110    118     9  0.000000  0.460240  1
    109    107    110    118     9  0.00000  0.5439200  3
    109    107    110    118     9  180.00000  1.2133600  2
    109    108    111    115     9  0.000000  0.650840  3
    109    108    111    117     9  0.000000  0.650840  3
    109    108    111    127     9  0.000000  0.650840  3
    109    108    123    124     9  0.000000  0.000000  0
    110    107    109    112     9  0.000000  0.650840  3
    110    107    109    125     9  0.000000  0.878640  3
    110    117    111    115     9  0.000000  1.603870  3
    110    117    111    127     9  0.000000  5.188160  2
    110    117    111    127     9  180.00000  0.0000000  3
    110    117    111    127     9  180.00000  4.0584800  1
    110    118    121    122     9  0.000000  0.000000  0
    111    108    109    112     9  0.000000  0.650840  3
    111    108    109    125     9  0.000000  0.878640  3
    111    108    123    124     9  0.000000  0.000000  0
    111    117    110    114     9  0.000000  1.410010  3
    111    117    110    118     9  0.000000  0.000000  0
    111    117    110    118     9  0.00000  0.6694400  2
    111    117    110    118     9  0.00000  1.0041600  3
    111    127    128    130     9  0.000000  0.000000  0
    111    127    128    130     9  0.00000  0.6694400  2
    111    127    128    130     9  0.00000  1.0041600  3
    111    127    128    131     9  0.000000  0.000000  0
    111    127    128    131     9  0.00000  0.6694400  2
    111    127    128    131     9  0.00000  1.0041600  3
    111    127    128    134     9  0.000000  1.410010  3
    112    109    107    116     9  0.000000  0.650840  3
    112    109    108    113     9  0.000000  0.650840  3
    112    109    108    123     9  0.000000  0.000000  0
    112    109    108    123     9  0.00000  1.0460000  1
    112    109    125    126     9  0.000000  0.472790  3
    113    108    109    125     9  0.000000  0.000000  0
    113    108    109    125     9  0.00000  1.0460000  1
    113    108    111    115     9  0.000000  0.650840  3
    113    108    111    117     9  0.000000  0.000000  0
    113    108    111    117     9  0.00000  1.0460000  1
    113    108    111    127     9  0.000000  0.000000  0
    113    108    111    127     9  0.00000  1.0460000  1
    113    108    123    124     9  0.000000  0.472790  3
    114    110    107    116     9  0.000000  0.650840  3
    114    110    118    119     9  0.000000  0.650840  3
    114    110    118    120     9  0.000000  0.650840  3
    114    110    118    121     9  0.000000  0.000000  0
    114    110    118    121     9  0.00000  1.0460000  1
    115    111    108    123     9  0.000000  0.650840  3
    115    111    127    128     9  0.000000  1.603870  3
    116    107    109    125     9  0.000000  0.000000  0
    116    107    109    125     9  0.00000  1.0460000  1
    116    107    110    117     9  0.000000  0.000000  0
    116    107    110    117     9  0.00000  1.0460000  1
    116    107    110    118     9  0.000000  0.650840  3
    117    110    118    119     9  0.000000  0.000000  0
    117    110    118    119     9  0.00000  1.0460000  1
    117    110    118    120     9  0.000000  0.000000  0
    117    110    118    120     9  0.00000  1.0460000  1
    117    110    118    121     9  0.000000  0.000000  0
    117    110    118    121     9  0.00000  4.2258400  3
    117    110    118    121     9  180.00000  0.0836800  1
    117    111    108    123     9  0.000000  0.000000  0
    117    111    108    123     9  0.00000  4.2258400  3
    117    111    108    123     9  180.00000  0.0836800  1
    117    111    127    128     9  0.000000  5.188160  2
    117    111    127    128     9  180.00000  0.0000000  3
    117    111    127    128     9  180.00000  4.0584800  1
    119    118    121    122     9  0.000000  0.472790  3
    120    118    121    122     9  0.000000  0.472790  3
    123    108    109    125     9  0.000000  3.765600  3
    123    108    109    125     9  0.00000  4.7279200  2
    123    108    111    127     9  0.000000  0.000000  0
    123    108    111    127     9  0.00000  4.2258400  3
    123    108    111    127     9  180.00000  0.0836800  1
    127    128    130    137     9  0.000000  0.000000  0
    127    128    130    137     9  0.00000  1.0460000  1
    127    128    130    142     9  0.000000  0.000000  0
    127    128    130    142     9  180.00000  0.0000000  2
    127    128    130    142     9  180.00000  0.7112800  1
    127    128    130    143     9  0.000000  0.650840  3
    127    128    131    132     9  0.000000  0.650840  3
    127    128    131    135     9  0.000000  0.000000  0
    127    128    131    135     9  0.00000  1.0460000  1
    127    128    131    138     9  0.000000  0.000000  0
    127    128    131    138     9  0.00000  4.2258400  3
    127    128    131    138     9  180.00000  0.0836800  1
    128    130    142    129     9  0.000000  0.000000  0
    128    130    142    129     9  0.00000  0.6694400  2
    128    130    142    129     9  0.00000  1.0041600  3
    128    130    143    144     9  0.000000  0.650840  3
    128    130    143    145     9  0.000000  0.650840  3
    128    130    143    146     9  0.000000  0.878640  3
    128    131    132    129     9  0.000000  0.460240  1
    128    131    132    129     9  0.00000  0.5439200  3
    128    131    132    129     9  180.00000  1.2133600  2
    128    131    132    136     9  0.000000  0.650840  3
    128    131    132    140     9  0.000000  0.878640  3
    128    131    138    139     9  0.000000  0.000000  0
    129    132    131    135     9  0.000000  0.650840  3
    129    132    131    138     9  0.000000  0.878640  3
    129    132    140    141     9  0.000000  0.000000  0
    129    142    130    137     9  0.000000  1.410010  3
    129    142    130    143     9  0.000000  0.000000  0
    129    142    130    143     9  0.00000  0.6694400  2
    129    142    130    143     9  0.00000  1.0041600  3
    129    148    149    151     9  0.000000  0.000000  0
    129    148    149    151     9  0.00000  0.6694400  2
    129    148    149    151     9  0.00000  1.0041600  3
    129    148    149    152     9  0.000000  0.000000  0
    129    148    149    152     9  0.00000  0.6694400  2
    129    148    149    152     9  0.00000  1.0041600  3
    129    148    149    158     9  0.000000  1.410010  3
    130    128    131    132     9  0.000000  0.460240  1
    130    128    131    132     9  0.00000  0.5439200  3
    130    128    131    132     9  180.00000  1.2133600  2
    130    128    131    135     9  0.000000  0.650840  3
    130    128    131    138     9  0.000000  0.878640  3
    130    142    129    132     9  0.000000  0.000000  0
    130    142    129    132     9  0.00000  0.6694400  2
    130    142    129    132     9  0.00000  1.0041600  3
    130    142    129    133     9  0.000000  1.603870  3
    130    142    129    148     9  0.000000  5.188160  2
    130    142    129    148     9  180.00000  0.0000000  3
    130    142    129    148     9  180.00000  4.0584800  1
    130    143    146    147     9  0.000000  0.000000  0
    131    128    130    137     9  0.000000  0.650840  3
    131    128    130    142     9  0.000000  0.650840  3
    131    128    130    143     9  0.000000  0.460240  1
    131    128    130    143     9  0.00000  0.5439200  3
    131    128    130    143     9  180.00000  1.2133600  2
    131    132    129    133     9  0.000000  0.650840  3
    131    132    129    142     9  0.000000  0.650840  3
    131    132    129    148     9  0.000000  0.650840  3
    131    132    140    141     9  0.000000  0.000000  0
    132    129    148    149     9  0.000000  0.000000  0
    132    129    148    149     9  0.00000  0.6694400  2
    132    129    148    149     9  0.00000  1.0041600  3
    132    131    128    134     9  0.000000  0.650840  3
    132    131    138    139     9  0.000000  0.000000  0
    133    129    132    136     9  0.000000  0.650840  3
    133    129    132    140     9  0.000000  0.650840  3
    133    129    148    149     9  0.000000  1.603870  3
    134    128    130    137     9  0.000000  0.650840  3
    134    128    130    142     9  0.000000  0.000000  0
    134    128    130    142     9  0.00000  1.0460000  1
    134    128    130    143     9  0.000000  0.650840  3
    134    128    131    135     9  0.000000  0.650840  3
    134    128    131    138     9  0.000000  0.000000  0
    134    128    131    138     9  0.00000  1.0460000  1
    135    131    132    136     9  0.000000  0.650840  3
    135    131    132    140     9  0.000000  0.000000  0
    135    131    132    140     9  0.00000  1.0460000  1
    135    131    138    139     9  0.000000  0.472790  3
    136    132    129    142     9  0.000000  0.000000  0
    136    132    129    142     9  0.00000  1.0460000  1
    136    132    129    148     9  0.000000  0.000000  0
    136    132    129    148     9  0.00000  1.0460000  1
    136    132    131    138     9  0.000000  0.000000  0
    136    132    131    138     9  0.00000  1.0460000  1
    136    132    140    141     9  0.000000  0.472790  3
    137    130    143    144     9  0.000000  0.650840  3
    137    130    143    145     9  0.000000  0.650840  3
    137    130    143    146     9  0.000000  0.000000  0
    137    130    143    146     9  0.00000  1.0460000  1
    138    131    132    140     9  0.000000  3.765600  3
    138    131    132    140     9  0.00000  4.7279200  2
    140    132    129    142     9  0.000000  0.000000  0
    140    132    129    142     9  0.00000  4.2258400  3
    140    132    129    142     9  180.00000  0.0836800  1
    140    132    129    148     9  0.000000  0.000000  0
    140    132    129    148     9  0.00000  4.2258400  3
    140    132    129    148     9  180.00000  0.0836800  1
    142    129    148    149     9  0.000000  5.188160  2
    142    129    148    149     9  180.00000  0.0000000  3
    142    129    148    149     9  180.00000  4.0584800  1
    142    130    143    144     9  0.000000  0.000000  0
    142    130    143    144     9  0.00000  1.0460000  1
    142    130    143    145     9  0.000000  0.000000  0
    142    130    143    145     9  0.00000  1.0460000  1
    142    130    143    146     9  0.000000  0.000000  0
    142    130    143    146     9  0.00000  4.2258400  3
    142    130    143    146     9  180.00000  0.0836800  1
    144    143    146    147     9  0.000000  0.472790  3
    145    143    146    147     9  0.000000  0.472790  3
    148    149    151    150     9  0.000000  0.650840  3
    148    149    151    154     9  0.000000  0.000000  0
    148    149    151    154     9  0.00000  1.0460000  1
    148    149    151    167     9  0.000000  0.000000  0
    148    149    151    167     9  0.00000  4.2258400  3
    148    149    151    167     9  180.00000  0.0836800  1
    148    149    152    156     9  0.000000  0.000000  0
    148    149    152    156     9  0.00000  1.0460000  1
    148    149    152    159     9  0.000000  0.000000  0
    148    149    152    159     9  180.00000  0.0000000  2
    148    149    152    159     9  180.00000  0.7112800  1
    148    149    152    160     9  0.000000  0.650840  3
    149    151    150    153     9  0.000000  0.460240  1
    149    151    150    153     9  0.00000  0.5439200  3
    149    151    150    153     9  180.00000  1.2133600  2
    149    151    150    155     9  0.000000  0.650840  3
    149    151    150    165     9  0.000000  0.878640  3
    149    151    167    168     9  0.000000  0.000000  0
    149    152    159    153     9  0.000000  0.000000  0
    149    152    159    153     9  0.00000  0.6694400  2
    149    152    159    153     9  0.00000  1.0041600  3
    149    152    160    161     9  0.000000  0.650840  3
    149    152    160    162     9  0.000000  0.650840  3
    149    152    160    163     9  0.000000  0.878640  3
    150    151    149    152     9  0.000000  0.460240  1
    150    151    149    152     9  0.00000  0.5439200  3
    150    151    149    152     9  180.00000  1.2133600  2
    150    151    149    158     9  0.000000  0.650840  3
    150    151    167    168     9  0.000000  0.000000  0
    150    153    159    152     9  0.000000  0.000000  0
    150    153    159    152     9  0.00000  0.6694400  2
    150    153    159    152     9  0.00000  1.0041600  3
    150    153    169    170     9  0.000000  0.000000  0
    150    153    169    170     9  0.00000  0.6694400  2
    150    153    169    170     9  0.00000  1.0041600  3
    151    149    152    156     9  0.000000  0.650840  3
    151    149    152    159     9  0.000000  0.650840  3
    151    149    152    160     9  0.000000  0.460240  1
    151    149    152    160     9  0.00000  0.5439200  3
    151    149    152    160     9  180.00000  1.2133600  2
    151    150    153    157     9  0.000000  0.650840  3
    151    150    153    159     9  0.000000  0.650840  3
    151    150    153    169     9  0.000000  0.650840  3
    151    150    165    166     9  0.000000  0.000000  0
    152    149    151    154     9  0.000000  0.650840  3
    152    149    151    167     9  0.000000  0.878640  3
    152    159    153    157     9  0.000000  1.603870  3
    152    159    153    169     9  0.000000  5.188160  2
    152    159    153    169     9  180.00000  0.0000000  3
    152    159    153    169     9  180.00000  4.0584800  1
    152    160    163    164     9  0.000000  0.000000  0
    153    150    151    154     9  0.000000  0.650840  3
    153    150    151    167     9  0.000000  0.878640  3
    153    150    165    166     9  0.000000  0.000000  0
    153    159    152    156     9  0.000000  1.410010  3
    153    159    152    160     9  0.000000  0.000000  0
    153    159    152    160     9  0.00000  0.6694400  2
    153    159    152    160     9  0.00000  1.0041600  3
    153    169    170    172     9  0.000000  0.000000  0
    153    169    170    172     9  0.00000  0.6694400  2
    153    169    170    172     9  0.00000  1.0041600  3
    153    169    170    173     9  0.000000  0.000000  0
    153    169    170    173     9  0.00000  0.6694400  2
    153    169    170    173     9  0.00000  1.0041600  3
    153    169    170    176     9  0.000000  1.410010  3
    154    151    149    158     9  0.000000  0.650840  3
    154    151    150    155     9  0.000000  0.650840  3
    154    151    150    165     9  0.000000  0.000000  0
    154    151    150    165     9  0.00000  1.0460000  1
    154    151    167    168     9  0.000000  0.472790  3
    155    150    151    167     9  0.000000  0.000000  0
    155    150    151    167     9  0.00000  1.0460000  1
    155    150    153    157     9  0.000000  0.650840  3
    155    150    153    159     9  0.000000  0.000000  0
    155    150    153    159     9  0.00000  1.0460000  1
    155    150    153    169     9  0.000000  0.000000  0
    155    150    153    169     9  0.00000  1.0460000  1
    155    150    165    166     9  0.000000  0.472790  3
    156    152    149    158     9  0.000000  0.650840  3
    156    152    160    161     9  0.000000  0.650840  3
    156    152    160    162     9  0.000000  0.650840  3
    156    152    160    163     9  0.000000  0.000000  0
    156    152    160    163     9  0.00000  1.0460000  1
    157    153    150    165     9  0.000000  0.650840  3
    157    153    169    170     9  0.000000  1.603870  3
    158    149    151    167     9  0.000000  0.000000  0
    158    149    151    167     9  0.00000  1.0460000  1
    158    149    152    159     9  0.000000  0.000000  0
    158    149    152    159     9  0.00000  1.0460000  1
    158    149    152    160     9  0.000000  0.650840  3
    159    152    160    161     9  0.000000  0.000000  0
    159    152    160    161     9  0.00000  1.0460000  1
    159    152    160    162     9  0.000000  0.000000  0
    159    152    160    162     9  0.00000  1.0460000  1
    159    152    160    163     9  0.000000  0.000000  0
    159    152    160    163     9  0.00000  4.2258400  3
    159    152    160    163     9  180.00000  0.0836800  1
    159    153    150    165     9  0.000000  0.000000  0
    159    153    150    165     9  0.00000  4.2258400  3
    159    153    150    165     9  180.00000  0.0836800  1
    159    153    169    170     9  0.000000  5.188160  2
    159    153    169    170     9  180.00000  0.0000000  3
    159    153    169    170     9  180.00000  4.0584800  1
    161    160    163    164     9  0.000000  0.472790  3
    162    160    163    164     9  0.000000  0.472790  3
    165    150    151    167     9  0.000000  3.765600  3
    165    150    151    167     9  0.00000  4.7279200  2
    165    150    153    169     9  0.000000  0.000000  0
    165    150    153    169     9  0.00000  4.2258400  3
    165    150    153    169     9  180.00000  0.0836800  1
    169    170    172    179     9  0.000000  0.000000  0
    169    170    172    179     9  0.00000  1.0460000  1
    169    170    172    184     9  0.000000  0.000000  0
    169    170    172    184     9  180.00000  0.0000000  2
    169    170    172    184     9  180.00000  0.7112800  1
    169    170    172    185     9  0.000000  0.650840  3
    169    170    173    174     9  0.000000  0.650840  3
    169    170    173    177     9  0.000000  0.000000  0
    169    170    173    177     9  0.00000  1.0460000  1
    169    170    173    180     9  0.000000  0.000000  0
    169    170    173    180     9  0.00000  4.2258400  3
    169    170    173    180     9  180.00000  0.0836800  1
    170    172    184    171     9  0.000000  0.000000  0
    170    172    184    171     9  0.00000  0.6694400  2
    170    172    184    171     9  0.00000  1.0041600  3
    170    172    185    186     9  0.000000  0.650840  3
    170    172    185    187     9  0.000000  0.650840  3
    170    172    185    188     9  0.000000  0.878640  3
    170    173    174    171     9  0.000000  0.460240  1
    170    173    174    171     9  0.00000  0.5439200  3
    170    173    174    171     9  180.00000  1.2133600  2
    170    173    174    178     9  0.000000  0.650840  3
    170    173    174    182     9  0.000000  0.878640  3
    170    173    180    181     9  0.000000  0.000000  0
    171    174    173    177     9  0.000000  0.650840  3
    171    174    173    180     9  0.000000  0.878640  3
    171    174    182    183     9  0.000000  0.000000  0
    171    184    172    179     9  0.000000  1.410010  3
    171    184    172    185     9  0.000000  0.000000  0
    171    184    172    185     9  0.00000  0.6694400  2
    171    184    172    185     9  0.00000  1.0041600  3
    171    190    191    193     9  0.000000  0.000000  0
    171    190    191    193     9  0.00000  0.6694400  2
    171    190    191    193     9  0.00000  1.0041600  3
    171    190    191    194     9  0.000000  0.000000  0
    171    190    191    194     9  0.00000  0.6694400  2
    171    190    191    194     9  0.00000  1.0041600  3
    171    190    191    200     9  0.000000  1.410010  3
    172    170    173    174     9  0.000000  0.460240  1
    172    170    173    174     9  0.00000  0.5439200  3
    172    170    173    174     9  180.00000  1.2133600  2
    172    170    173    177     9  0.000000  0.650840  3
    172    170    173    180     9  0.000000  0.878640  3
    172    184    171    174     9  0.000000  0.000000  0
    172    184    171    174     9  0.00000  0.6694400  2
    172    184    171    174     9  0.00000  1.0041600  3
    172    184    171    175     9  0.000000  1.603870  3
    172    184    171    190     9  0.000000  5.188160  2
    172    184    171    190     9  180.00000  0.0000000  3
    172    184    171    190     9  180.00000  4.0584800  1
    172    185    188    189     9  0.000000  0.000000  0
    173    170    172    179     9  0.000000  0.650840  3
    173    170    172    184     9  0.000000  0.650840  3
    173    170    172    185     9  0.000000  0.460240  1
    173    170    172    185     9  0.00000  0.5439200  3
    173    170    172    185     9  180.00000  1.2133600  2
    173    174    171    175     9  0.000000  0.650840  3
    173    174    171    184     9  0.000000  0.650840  3
    173    174    171    190     9  0.000000  0.650840  3
    173    174    182    183     9  0.000000  0.000000  0
    174    171    190    191     9  0.000000  0.000000  0
    174    171    190    191     9  0.00000  0.6694400  2
    174    171    190    191     9  0.00000  1.0041600  3
    174    173    170    176     9  0.000000  0.650840  3
    174    173    180    181     9  0.000000  0.000000  0
    175    171    174    178     9  0.000000  0.650840  3
    175    171    174    182     9  0.000000  0.650840  3
    175    171    190    191     9  0.000000  1.603870  3
    176    170    172    179     9  0.000000  0.650840  3
    176    170    172    184     9  0.000000  0.000000  0
    176    170    172    184     9  0.00000  1.0460000  1
    176    170    172    185     9  0.000000  0.650840  3
    176    170    173    177     9  0.000000  0.650840  3
    176    170    173    180     9  0.000000  0.000000  0
    176    170    173    180     9  0.00000  1.0460000  1
    177    173    174    178     9  0.000000  0.650840  3
    177    173    174    182     9  0.000000  0.000000  0
    177    173    174    182     9  0.00000  1.0460000  1
    177    173    180    181     9  0.000000  0.472790  3
    178    174    171    184     9  0.000000  0.000000  0
    178    174    171    184     9  0.00000  1.0460000  1
    178    174    171    190     9  0.000000  0.000000  0
    178    174    171    190     9  0.00000  1.0460000  1
    178    174    173    180     9  0.000000  0.000000  0
    178    174    173    180     9  0.00000  1.0460000  1
    178    174    182    183     9  0.000000  0.472790  3
    179    172    185    186     9  0.000000  0.650840  3
    179    172    185    187     9  0.000000  0.650840  3
    179    172    185    188     9  0.000000  0.000000  0
    179    172    185    188     9  0.00000  1.0460000  1
    180    173    174    182     9  0.000000  3.765600  3
    180    173    174    182     9  0.00000  4.7279200  2
    182    174    171    184     9  0.000000  0.000000  0
    182    174    171    184     9  0.00000  4.2258400  3
    182    174    171    184     9  180.00000  0.0836800  1
    182    174    171    190     9  0.000000  0.000000  0
    182    174    171    190     9  0.00000  4.2258400  3
    182    174    171    190     9  180.00000  0.0836800  1
    184    171    190    191     9  0.000000  5.188160  2
    184    171    190    191     9  180.00000  0.0000000  3
    184    171    190    191     9  180.00000  4.0584800  1
    184    172    185    186     9  0.000000  0.000000  0
    184    172    185    186     9  0.00000  1.0460000  1
    184    172    185    187     9  0.000000  0.000000  0
    184    172    185    187     9  0.00000  1.0460000  1
    184    172    185    188     9  0.000000  0.000000  0
    184    172    185    188     9  0.00000  4.2258400  3
    184    172    185    188     9  180.00000  0.0836800  1
    186    185    188    189     9  0.000000  0.472790  3
    187    185    188    189     9  0.000000  0.472790  3
    190    191    193    192     9  0.000000  0.650840  3
    190    191    193    196     9  0.000000  0.000000  0
    190    191    193    196     9  0.00000  1.0460000  1
    190    191    193    209     9  0.000000  0.000000  0
    190    191    193    209     9  0.00000  4.2258400  3
    190    191    193    209     9  180.00000  0.0836800  1
    190    191    194    198     9  0.000000  0.000000  0
    190    191    194    198     9  0.00000  1.0460000  1
    190    191    194    201     9  0.000000  0.000000  0
    190    191    194    201     9  180.00000  0.0000000  2
    190    191    194    201     9  180.00000  0.7112800  1
    190    191    194    202     9  0.000000  0.650840  3
    191    193    192    195     9  0.000000  0.460240  1
    191    193    192    195     9  0.00000  0.5439200  3
    191    193    192    195     9  180.00000  1.2133600  2
    191    193    192    197     9  0.000000  0.650840  3
    191    193    192    207     9  0.000000  0.878640  3
    191    193    209    210     9  0.000000  0.000000  0
    191    194    201    195     9  0.000000  0.000000  0
    191    194    201    195     9  0.00000  0.6694400  2
    191    194    201    195     9  0.00000  1.0041600  3
    191    194    202    203     9  0.000000  0.650840  3
    191    194    202    204     9  0.000000  0.650840  3
    191    194    202    205     9  0.000000  0.878640  3
    192    193    191    194     9  0.000000  0.460240  1
    192    193    191    194     9  0.00000  0.5439200  3
    192    193    191    194     9  180.00000  1.2133600  2
    192    193    191    200     9  0.000000  0.650840  3
    192    193    209    210     9  0.000000  0.000000  0
    192    195    201    194     9  0.000000  0.000000  0
    192    195    201    194     9  0.00000  0.6694400  2
    192    195    201    194     9  0.00000  1.0041600  3
    192    195    211    212     9  0.000000  0.000000  0
    193    191    194    198     9  0.000000  0.650840  3
    193    191    194    201     9  0.000000  0.650840  3
    193    191    194    202     9  0.000000  0.460240  1
    193    191    194    202     9  0.00000  0.5439200  3
    193    191    194    202     9  180.00000  1.2133600  2
    193    192    195    199     9  0.000000  0.650840  3
    193    192    195    201     9  0.000000  0.650840  3
    193    192    195    211     9  0.000000  0.878640  3
    193    192    207    208     9  0.000000  0.000000  0
    194    191    193    196     9  0.000000  0.650840  3
    194    191    193    209     9  0.000000  0.878640  3
    194    201    195    199     9  0.000000  1.603870  3
    194    201    195    211     9  0.000000  1.603870  3
    194    202    205    206     9  0.000000  0.000000  0
    195    192    193    196     9  0.000000  0.650840  3
    195    192    193    209     9  0.000000  0.878640  3
    195    192    207    208     9  0.000000  0.000000  0
    195    201    194    198     9  0.000000  1.410010  3
    195    201    194    202     9  0.000000  0.000000  0
    195    201    194    202     9  0.00000  0.6694400  2
    195    201    194    202     9  0.00000  1.0041600  3
    196    193    191    200     9  0.000000  0.650840  3
    196    193    192    197     9  0.000000  0.650840  3
    196    193    192    207     9  0.000000  0.000000  0
    196    193    192    207     9  0.00000  1.0460000  1
    196    193    209    210     9  0.000000  0.472790  3
    197    192    193    209     9  0.000000  0.000000  0
    197    192    193    209     9  0.00000  1.0460000  1
    197    192    195    199     9  0.000000  0.650840  3
    197    192    195    201     9  0.000000  0.000000  0
    197    192    195    201     9  0.00000  1.0460000  1
    197    192    195    211     9  0.000000  0.000000  0
    197    192    195    211     9  0.00000  1.0460000  1
    197    192    207    208     9  0.000000  0.472790  3
    198    194    191    200     9  0.000000  0.650840  3
    198    194    202    203     9  0.000000  0.650840  3
    198    194    202    204     9  0.000000  0.650840  3
    198    194    202    205     9  0.000000  0.000000  0
    198    194    202    205     9  0.00000  1.0460000  1
    199    195    192    207     9  0.000000  0.650840  3
    199    195    211    212     9  0.000000  0.697330  3
    200    191    193    209     9  0.000000  0.000000  0
    200    191    193    209     9  0.00000  1.0460000  1
    200    191    194    201     9  0.000000  0.000000  0
    200    191    194    201     9  0.00000  1.0460000  1
    200    191    194    202     9  0.000000  0.650840  3
    201    194    202    203     9  0.000000  0.000000  0
    201    194    202    203     9  0.00000  1.0460000  1
    201    194    202    204     9  0.000000  0.000000  0
    201    194    202    204     9  0.00000  1.0460000  1
    201    194    202    205     9  0.000000  0.000000  0
    201    194    202    205     9  0.00000  4.2258400  3
    201    194    202    205     9  180.00000  0.0836800  1
    201    195    192    207     9  0.000000  0.000000  0
    201    195    192    207     9  0.00000  4.2258400  3
    201    195    192    207     9  180.00000  0.0836800  1
    201    195    211    212     9  0.000000  0.697330  3
    203    202    205    206     9  0.000000  0.472790  3
    204    202    205    206     9  0.000000  0.472790  3
    207    192    193    209     9  0.000000  3.765600  3
    207    192    193    209     9  0.00000  4.7279200  2
    207    192    195    211     9  0.000000  3.765600  3
    207    192    195    211     9  0.00000  4.7279200  2

