GROningen MAchine for Chemical Simulation
  212
    1CLSA    H1    1   0.299  12.091   6.538
    1CLSA    C1    2   0.387  12.072   6.601
    1CLSA    C2    3   0.661  12.080   6.677
    1CLSA    C3    4   0.448  12.206   6.649
    1CLSA    C4    5   0.486  11.987   6.522
    1CLSA    C5    6   0.608  11.950   6.608
    1CLSA    H2    7   0.768  12.092   6.653
    1CLSA    H3    8   0.350  12.015   6.686
    1CLSA    H4    9   0.520  12.042   6.433
    1CLSA    H5   10   0.572  11.885   6.689
    1CLSA    H6   11   0.415  12.283   6.577
    1CLSA    O1   12   0.417  11.870   6.484
    1CLSA    H7   13   0.486  11.812   6.445
    1CLSA    O2   14   0.709  11.880   6.532
    1CLSA    H8   15   0.788  11.865   6.592
    1CLSA    O3   16   0.592  12.199   6.635
    1CLSA    C6   17   0.405  12.255   6.790
    1CLSA    H9   18   0.466  12.343   6.815
    1CLSA   H10   19   0.300  12.289   6.787
    1CLSA    O4   20   0.418  12.156   6.893
    1CLSA   H11   21   0.507  12.111   6.870
    1CLSA    O5   22   0.643  12.068   6.818
    2CLSB    C7   23   0.761  12.096   6.894
    2CLSB    C8   24   0.855  12.237   7.074
    2CLSB    C9   25   0.725  12.206   6.995
    2CLSB   C10   26   0.815  11.967   6.963
    2CLSB   C11   27   0.918  12.107   7.132
    2CLSB   H12   28   0.700  12.297   6.939
    2CLSB   H13   29   0.927  12.289   7.011
    2CLSB   H14   30   0.740  11.933   7.037
    2CLSB   H15   31   0.851  12.076   7.214
    2CLSB   H16   32   0.841  12.135   6.829
    2CLSB    O6   33   0.937  12.003   7.034
    2CLSB   C12   34   0.842  11.850   6.866
    2CLSB   H17   35   0.900  11.773   6.918
    2CLSB   H18   36   0.746  11.805   6.840
    2CLSB    O7   37   0.909  11.890   6.746
    2CLSB   H19   38   1.004  11.895   6.770
    2CLSB    O8   39   0.813  12.319   7.180
    2CLSB   H20   40   0.717  12.291   7.182
    2CLSB    O9   41   0.617  12.170   7.087
    2CLSB   H21   42   0.529  12.165   7.039
    2CLSB   O10   43   1.048  12.142   7.182
    3CLSA   C13   44   1.101  12.054   7.283
    3CLSA   C14   45   1.357  11.992   7.415
    3CLSA   C15   46   1.167  12.145   7.389
    3CLSA   C16   47   1.204  11.962   7.212
    3CLSA   C17   48   1.299  11.893   7.311
    3CLSA   H22   49   1.428  12.062   7.369
    3CLSA   H23   50   1.023  11.993   7.329
    3CLSA   H24   51   1.266  12.027   7.147
    3CLSA   H25   52   1.244  11.816   7.365
    3CLSA   H26   53   1.232  12.218   7.337
    3CLSA   O11   54   1.142  11.859   7.129
    3CLSA   H27   55   1.066  11.902   7.081
    3CLSA   O12   56   1.401  11.831   7.230
    3CLSA   H28   57   1.353  11.777   7.163
    3CLSA   O13   58   1.248  12.064   7.477
    3CLSA   C18   59   1.065  12.226   7.474
    3CLSA   H29   60   1.077  12.198   7.580
    3CLSA   H30   61   1.087  12.332   7.466
    3CLSA   O14   62   0.930  12.201   7.436
    3CLSA   H31   63   0.902  12.277   7.380
    3CLSA   O15   64   1.415  11.916   7.519
    4CLSB   C19   65   1.521  11.984   7.590
    4CLSB   C20   66   1.567  12.145   7.778
    4CLSB   C21   67   1.458  12.091   7.684
    4CLSB   C22   68   1.598  11.873   7.667
    4CLSB   C23   69   1.641  12.029   7.850
    4CLSB   H32   70   1.428  12.176   7.621
    4CLSB   H33   71   1.638  12.207   7.723
    4CLSB   H34   72   1.526  11.813   7.726
    4CLSB   H35   73   1.568  11.984   7.920
    4CLSB   H36   74   1.589  12.032   7.520
    4CLSB   O16   75   1.694  11.933   7.756
    4CLSB   C24   76   1.675  11.779   7.571
    4CLSB   H37   77   1.717  11.696   7.628
    4CLSB   H38   78   1.605  11.737   7.498
    4CLSB   O17   79   1.781  11.848   7.505
    4CLSB   H39   80   1.852  11.862   7.569
    4CLSB   O18   81   1.495  12.220   7.874
    4CLSB   H40   82   1.407  12.176   7.863
    4CLSB   O19   83   1.344  12.039   7.758
    4CLSB   H41   84   1.278  12.006   7.690
    4CLSB   O20   85   1.753  12.085   7.919
    5CLSA   C25   86   1.814  12.000   8.019
    5CLSA   C26   87   2.066  11.971   8.167
    5CLSA   C27   88   1.857  12.095   8.133
    5CLSA   C28   89   1.936  11.928   7.950
    5CLSA   C29   90   2.034  11.871   8.052
    5CLSA   H42   91   2.130  12.053   8.131
    5CLSA   H43   92   1.743  11.924   8.057
    5CLSA   H44   93   1.989  12.006   7.894
    5CLSA   H45   94   1.987  11.782   8.101
    5CLSA   H46   95   1.912  12.179   8.089
    5CLSA   O21   96   1.899  11.819   7.864
    5CLSA   H47   97   1.819  11.849   7.812
    5CLSA   O22   98   2.150  11.830   7.980
    5CLSA   H48   99   2.114  11.774   7.907
    5CLSA   O23  100   1.945  12.024   8.224
    5CLSA   C30  101   1.738  12.153   8.213
    5CLSA   H49  102   1.745  12.119   8.317
    5CLSA   H50  103   1.745  12.263   8.216
    5CLSA   O24  104   1.611  12.115   8.161
    5CLSA   H51  105   1.580  12.189   8.105
    5CLSA   O25  106   2.126  11.897   8.270
    6CLSB   C31  107   2.233  11.963   8.335
    6CLSB   C32  108   2.281  12.114   8.530
    6CLSB   C33  109   2.170  12.064   8.436
    6CLSB   C34  110   2.317  11.852   8.402
    6CLSB   C35  111   2.361  11.999   8.593
    6CLSB   H52  112   2.135  12.151   8.379
    6CLSB   H53  113   2.348  12.183   8.477
    6CLSB   H54  114   2.250  11.786   8.459
    6CLSB   H55  115   2.292  11.946   8.662
    6CLSB   H56  116   2.296  12.018   8.263
    6CLSB   O26  117   2.414  11.910   8.492
    6CLSB   C36  118   2.393  11.768   8.298
    6CLSB   H57  119   2.439  11.681   8.345
    6CLSB   H58  120   2.323  11.730   8.222
    6CLSB   O27  121   2.495  11.845   8.233
    6CLSB   H59  122   2.565  11.861   8.299
    6CLSB   O28  123   2.210  12.182   8.633
    6CLSB   H60  124   2.123  12.137   8.621
    6CLSB   O29  125   2.060  12.006   8.511
    6CLSB   H61  126   1.996  11.969   8.444
    6CLSB   O30  127   2.474  12.051   8.661
    7CLSA   C37  128   2.540  11.962   8.752
    7CLSA   C38  129   2.801  11.929   8.888
    7CLSA   C39  130   2.590  12.053   8.868
    7CLSA   C40  131   2.658  11.893   8.677
    7CLSA   C41  132   2.763  11.832   8.771
    7CLSA   H62  133   2.863  12.013   8.853
    7CLSA   H63  134   2.471  11.886   8.794
    7CLSA   H64  135   2.708  11.970   8.618
    7CLSA   H65  136   2.721  11.742   8.818
    7CLSA   H66  137   2.643  12.138   8.825
    7CLSA   O31  138   2.617  11.785   8.591
    7CLSA   H67  139   2.536  11.817   8.541
    7CLSA   O32  140   2.875  11.797   8.688
    7CLSA   H68  141   2.836  11.741   8.619
    7CLSA   O33  142   2.681  11.977   8.952
    7CLSA   C42  143   2.476  12.110   8.957
    7CLSA   H69  144   2.490  12.076   9.060
    7CLSA   H70  145   2.481  12.220   8.957
    7CLSA   O34  146   2.345  12.069   8.913
    7CLSA   H71  147   2.308  12.143   8.860
    7CLSA   O35  148   2.865  11.851   8.986
    8CLSB   C43  149   2.971  11.918   9.055
    8CLSB   C44  150   3.018  12.082   9.241
    8CLSB   C45  151   2.910  12.030   9.144
    8CLSB   C46  152   3.044  11.808   9.137
    8CLSB   C47  153   3.086  11.966   9.317
    8CLSB   H72  154   2.883  12.114   9.080
    8CLSB   H73  155   3.092  12.142   9.186
    8CLSB   H74  156   2.969  11.753   9.195
    8CLSB   H75  157   3.010  11.925   9.385
    8CLSB   H76  158   3.041  11.963   8.983
    8CLSB   O36  159   3.140  11.867   9.226
    8CLSB   C48  160   3.119  11.709   9.045
    8CLSB   H77  161   3.157  11.625   9.107
    8CLSB   H78  162   3.050  11.666   8.972
    8CLSB   O37  163   3.229  11.772   8.979
    8CLSB   H79  164   3.295  11.792   9.046
    8CLSB   O38  165   2.946  12.163   9.332
    8CLSB   H80  166   2.857  12.120   9.318
    8CLSB   O39  167   2.792  11.985   9.216
    8CLSB   H81  168   2.726  11.951   9.147
    8CLSB   O40  169   3.199  12.020   9.390
    9CLSA   C49  170   3.250  11.937   9.497
    9CLSA   C50  171   3.495  11.899   9.658
    9CLSA   C51  172   3.294  12.035   9.607
    9CLSA   C52  173   3.370  11.855   9.440
    9CLSA   C53  174   3.454  11.792   9.551
    9CLSA   H82  175   3.564  11.972   9.614
    9CLSA   H83  176   3.174  11.868   9.536
    9CLSA   H84  177   3.434  11.926   9.386
    9CLSA   H85  178   3.394  11.716   9.603
    9CLSA   H86  179   3.353  12.114   9.561
    9CLSA   O41  180   3.331  11.746   9.352
    9CLSA   H87  181   3.258  11.780   9.293
    9CLSA   O42  182   3.566  11.729   9.485
    9CLSA   H88  183   3.523  11.683   9.409
    9CLSA   O43  184   3.375  11.965   9.706
    9CLSA   C54  185   3.173  12.102   9.680
    9CLSA   H89  186   3.173  12.071   9.785
    9CLSA   H90  187   3.187  12.211   9.678
    9CLSA   O44  188   3.047  12.068   9.622
    9CLSA   H91  189   3.024  12.140   9.561
    9CLSA   O45  190   3.550  11.830   9.770
   10CLSB   C55  191   3.644  11.909   9.846
   10CLSB   C56  192   3.721  11.928  10.091
   10CLSB   C57  193   3.607  11.885   9.995
   10CLSB   C58  194   3.786  11.857   9.811
   10CLSB   C59  195   3.858  11.871  10.043
   10CLSB   H92  196   3.518  11.946  10.018
   10CLSB   H93  197   3.725  12.038  10.096
   10CLSB   H94  198   3.785  11.747   9.817
   10CLSB   H95  199   3.857  11.762  10.054
   10CLSB   H96  200   3.636  12.016   9.825
   10CLSB   O46  201   3.881  11.910   9.906
   10CLSB   C60  202   3.832  11.897   9.669
   10CLSB   H97  203   3.932  11.855   9.652
   10CLSB   H98  204   3.766  11.854   9.595
   10CLSB   O47  205   3.836  12.040   9.658
   10CLSB   H99  206   3.883  12.070   9.739
   10CLSB   O48  207   3.681  11.875  10.217
   10CLSB  H100  208   3.630  11.796  10.187
   10CLSB   O49  209   3.576  11.746  10.014
   10CLSB  H101  210   3.537  11.722   9.925
   10CLSB   O50  211   3.968  11.928  10.110
   10CLSB  H102  212   4.007  11.986  10.042
  12.00000  12.00000  12.00000
