CLS single chain in water
 4712
    1CLSA    H1    1   3.331   2.595   0.324  0.1884 -0.1108 -1.2315
    1CLSA    C1    2   3.380   2.501   0.352 -0.2801  0.0883  0.3032
    1CLSA    C2    3   3.658   2.396   0.375 -0.6931 -0.1584 -0.2264
    1CLSA    C3    4   3.474   2.527   0.482 -0.4196  0.1026  0.0787
    1CLSA    C4    5   3.452   2.435   0.237 -0.7172 -0.3528 -0.3027
    1CLSA    C5    6   3.548   2.326   0.287  0.8802  0.0083  0.0690
    1CLSA    H2    7   3.740   2.424   0.308  1.7834 -3.0275  1.3377
    1CLSA    H3    8   3.295   2.442   0.388 -0.3430  0.3562  0.6045
    1CLSA    H4    9   3.513   2.509   0.184 -2.1405  0.8038 -0.3696
    1CLSA    H5   10   3.484   2.266   0.352  0.1276  0.1477 -0.5328
    1CLSA    H6   11   3.458   2.631   0.512 -1.0042 -0.4442  1.7790
    1CLSA    O1   12   3.353   2.388   0.150  0.0799  0.1509 -0.1472
    1CLSA    H7   13   3.273   2.443   0.156 -0.0936  0.1017 -1.5907
    1CLSA    O2   14   3.606   2.241   0.185 -0.4177  0.0892 -0.5910
    1CLSA    H8   15   3.651   2.297   0.120 -1.8354  0.0293 -1.6564
    1CLSA    O3   16   3.612   2.507   0.445  0.3352  0.5818 -0.7891
    1CLSA    C6   17   3.450   2.447   0.609  0.2741  0.3333  0.0260
    1CLSA    H9   18   3.511   2.486   0.691  1.7011  0.3893 -1.0101
    1CLSA   H10   19   3.343   2.456   0.631 -0.3302  0.7902 -2.6411
    1CLSA    O4   20   3.469   2.303   0.600 -0.6064  0.0903 -0.3842
    1CLSA   H11   21   3.565   2.302   0.581 -0.1893  2.4805  1.0765
    1CLSA    O5   22   3.700   2.303   0.475  0.1142 -0.1493 -0.1260
    2CLSB    C7   23   3.834   2.337   0.520 -0.2805  0.8378 -0.2688
    2CLSB    C8   24   3.943   2.354   0.747  0.1634  0.2387 -0.1494
    2CLSB    C9   25   3.809   2.339   0.676 -0.1374 -0.1140 -0.2765
    2CLSB   C10   26   3.946   2.237   0.477 -0.0240  0.2445 -0.1259
    2CLSB   C11   27   4.050   2.245   0.703  0.1919 -0.2619  0.8227
    2CLSB   H12   28   3.758   2.430   0.710  0.0472 -0.4785  1.0195
    2CLSB   H13   29   3.982   2.455   0.726 -2.8248  1.7175  0.7618
    2CLSB   H14   30   3.908   2.134   0.484 -1.7530  0.8620  0.0477
    2CLSB   H15   31   4.002   2.153   0.738  0.0241 -0.0919  1.0386
    2CLSB   H16   32   3.864   2.437   0.488 -0.2448  0.4378 -1.5392
    2CLSB    O6   33   4.068   2.251   0.566  0.2740 -0.4261  0.2344
    2CLSB   C12   34   3.978   2.264   0.323 -0.1281  0.3015  0.2165
    2CLSB   H17   35   4.038   2.184   0.279 -1.7827 -0.9868  0.1911
    2CLSB   H18   36   3.881   2.255   0.271 -1.6158 -1.5278  3.0255
    2CLSB    O7   37   4.034   2.398   0.311  0.8251 -0.0335  0.2851
    2CLSB   H19   38   4.103   2.375   0.246  2.2278  0.6098  1.5083
    2CLSB    O8   39   3.916   2.332   0.885 -0.2439 -0.4830  0.4901
    2CLSB   H20   40   3.863   2.251   0.874  1.6194 -1.8218  0.7917
    2CLSB    O9   41   3.742   2.213   0.726  0.6342 -0.3616 -0.2391
    2CLSB   H21   42   3.705   2.163   0.651 -0.4068 -0.1289  0.0963
    2CLSB   O10   43   4.173   2.266   0.770  0.2173 -0.2516 -0.3927
    3CLSA   C13   44   4.222   2.146   0.838 -0.1175  0.0948  0.1066
    3CLSA   C14   45   4.480   1.986   0.878  0.5553  0.1832 -0.4236
    3CLSA   C15   46   4.342   2.190   0.932 -0.0411  0.2310  0.0166
    3CLSA   C16   47   4.271   2.041   0.738  0.1086 -0.2771  0.3122
    3CLSA   C17   48   4.355   1.928   0.805 -0.3445  0.1698 -0.6711
    3CLSA   H22   49   4.541   2.033   0.800  0.4026 -0.0529 -0.6898
    3CLSA   H23   50   4.143   2.102   0.900  0.5967 -0.7255  0.4520
    3CLSA   H24   51   4.335   2.094   0.666  1.6610  1.1252  2.6136
    3CLSA   H25   52   4.291   1.878   0.879  1.6641  0.8197  1.6182
    3CLSA   H26   53   4.407   2.251   0.868 -0.5246 -0.0471 -0.7609
    3CLSA   O11   54   4.165   1.979   0.663  0.0321 -0.0030 -0.6006
    3CLSA   H27   55   4.192   1.886   0.652 -0.9208 -0.2889 -0.5516
    3CLSA   O12   56   4.388   1.837   0.702  0.4430 -0.0574 -0.5143
    3CLSA   H28   57   4.367   1.746   0.729  1.0643 -0.1068 -0.1727
    3CLSA   O13   58   4.417   2.075   0.976 -0.4806  0.2208  0.2648
    3CLSA   C18   59   4.303   2.270   1.048  0.4945  0.1229  0.4956
    3CLSA   H29   60   4.392   2.315   1.094  0.2721 -0.0833  1.1395
    3CLSA   H30   61   4.242   2.360   1.030  0.7567  0.1597 -0.2364
    3CLSA   O14   62   4.245   2.194   1.154  0.5216 -0.0932  0.1950
    3CLSA   H31   63   4.266   2.103   1.127 -0.3743 -0.3984  0.4904
    3CLSA   O15   64   4.546   1.880   0.947 -0.5140  0.1361 -0.3706
    4CLSB   C19   65   4.677   1.912   0.996 -0.0171  0.4069 -0.2148
    4CLSB   C20   66   4.791   2.006   1.201 -0.1762  0.0245  0.2271
    4CLSB   C21   67   4.657   1.991   1.127 -0.3677  0.5576 -0.4548
    4CLSB   C22   68   4.751   1.774   1.022  0.0201  0.9498 -0.6571
    4CLSB   C23   69   4.868   1.867   1.215  0.2269  0.2002  0.0811
    4CLSB   H32   70   4.630   2.095   1.103  0.6680  0.7968 -0.6328
    4CLSB   H33   71   4.855   2.078   1.148 -0.4514 -0.5535 -0.9127
    4CLSB   H34   72   4.684   1.722   1.092 -2.6676  0.6245 -3.2721
    4CLSB   H35   73   4.817   1.810   1.293  0.1487  0.5447  0.2830
    4CLSB   H36   74   4.736   1.969   0.923  3.3343  1.1587  2.7298
    4CLSB   O16   75   4.878   1.808   1.085  0.7011  0.2444  0.1316
    4CLSB   C24   76   4.783   1.685   0.904 -0.2739 -0.8385 -0.4693
    4CLSB   H37   77   4.692   1.628   0.880 -2.2227  0.5226  2.9902
    4CLSB   H38   78   4.804   1.754   0.822  0.2817  1.4554  1.5011
    4CLSB   O17   79   4.889   1.595   0.931  0.8322  0.0634 -0.5499
    4CLSB   H39   80   4.924   1.624   1.016  0.8349 -0.4853 -0.3597
    4CLSB   O18   81   4.774   2.048   1.334  0.3139 -0.2412 -0.0064
    4CLSB   H40   82   4.678   2.049   1.351  0.2225 -0.7221 -0.4756
    4CLSB   O19   83   4.554   1.933   1.212  0.0423  0.1456 -0.4928
    4CLSB   H41   84   4.494   1.884   1.153  0.1313 -0.3820 -0.1519
    4CLSB   O20   85   4.998   1.898   1.259 -0.8779 -0.0719 -0.1560
    5CLSA   C25   86   5.041   1.827   1.378 -0.3515  0.6624  0.1564
    5CLSA   C26   87   5.248   1.703   1.546 -0.2596 -0.6114 -0.1517
    5CLSA   C27   88   5.152   1.911   1.451 -0.1369  0.1893 -0.0697
    5CLSA   C28   89   5.102   1.689   1.341  0.0946  0.4931 -1.0827
    5CLSA   C29   90   5.144   1.612   1.475  0.5960  0.5921  0.6424
    5CLSA   H42   91   5.333   1.729   1.482 -0.3664  1.5145  0.5118
    5CLSA   H43   92   4.965   1.794   1.449  0.0262 -0.4474  0.0662
    5CLSA   H44   93   5.195   1.703   1.284  0.6590 -1.3880 -0.6862
    5CLSA   H45   94   5.057   1.600   1.540  0.3687  0.1469  0.2575
    5CLSA   H46   95   5.245   1.916   1.393  1.0823  1.8992  1.9110
    5CLSA   O21   96   5.015   1.603   1.264 -0.2386  0.3837  0.2296
    5CLSA   H47   97   5.075   1.541   1.218  1.7999  0.7640  2.1808
    5CLSA   O22   98   5.201   1.482   1.441  0.0219 -0.1435  0.7267
    5CLSA   H48   99   5.191   1.425   1.519  1.3117 -0.6416  0.5506
    5CLSA   O23  100   5.175   1.832   1.576 -0.3319 -0.0901  0.0953
    5CLSA   C30  101   5.122   2.062   1.485 -0.4721  0.7328  0.5707
    5CLSA   H49  102   5.128   2.116   1.389  0.4635 -1.9377 -0.9912
    5CLSA   H50  103   5.019   2.072   1.522 -0.3403  2.1233  0.5944
    5CLSA   O24  104   5.216   2.115   1.576 -0.0309 -0.2318 -0.4103
    5CLSA   H51  105   5.187   2.207   1.584 -0.8308 -0.3838 -1.2957
    5CLSA   O25  106   5.283   1.644   1.671  0.2184 -0.5087  0.1179
    6CLSB   C31  107   5.411   1.681   1.723  0.4031  0.4370  0.3695
    6CLSB   C32  108   5.501   1.762   1.947 -0.4879  0.8614 -0.2372
    6CLSB   C33  109   5.380   1.738   1.865  0.7217  0.0874 -0.2246
    6CLSB   C34  110   5.503   1.560   1.728 -0.2727  0.6638  0.0430
    6CLSB   C35  111   5.587   1.632   1.950 -0.3939  0.2782 -0.1261
    6CLSB   H52  112   5.331   1.834   1.849 -1.3318 -0.9108 -0.3268
    6CLSB   H53  113   5.571   1.829   1.896  2.5205 -1.9964 -0.1793
    6CLSB   H54  114   5.442   1.482   1.774 -1.2593  0.5968 -1.3119
    6CLSB   H55  115   5.539   1.545   1.997 -0.3529 -0.2010 -0.9464
    6CLSB   H56  116   5.457   1.763   1.667  2.8313  0.7831  2.6622
    6CLSB   O26  117   5.620   1.593   1.809 -0.0790  0.2878  0.4293
    6CLSB   C36  118   5.550   1.510   1.587  0.4159  0.0824 -0.0538
    6CLSB   H57  119   5.630   1.438   1.608 -0.0245  0.3350  2.9482
    6CLSB   H58  120   5.472   1.450   1.539 -0.4740  1.9219 -1.0352
    6CLSB   O27  121   5.594   1.619   1.507 -0.0062 -0.3740  0.5001
    6CLSB   H59  122   5.683   1.651   1.529  0.6802 -0.3336 -1.9607
    6CLSB   O28  123   5.467   1.808   2.076  0.1048  0.2525  0.5625
    6CLSB   H60  124   5.378   1.770   2.074 -0.3981  1.3652 -1.9311
    6CLSB   O29  125   5.282   1.653   1.941  0.0194  0.1353  0.2787
    6CLSB   H61  126   5.216   1.627   1.875 -1.7192  1.1923  1.4884
    6CLSB   O30  127   5.701   1.663   2.021 -0.1245  0.0901  0.2791
    7CLSA   C37  128   5.783   1.555   2.056  0.3724  0.7004 -0.2317
    7CLSA   C38  129   6.012   1.482   2.240 -0.2220 -0.3740 -0.3446
    7CLSA   C39  130   5.776   1.551   2.217  0.1539 -0.4185  0.2471
    7CLSA   C40  131   5.929   1.592   2.012 -0.4770 -0.7187 -0.3496
    7CLSA   C41  132   6.020   1.478   2.076  0.6359  0.8326 -0.2370
    7CLSA   H62  133   6.046   1.574   2.289  1.8932 -1.7018  0.8494
    7CLSA   H63  134   5.743   1.464   2.011  0.2410  0.4044  0.4681
    7CLSA   H64  135   5.964   1.681   2.065 -0.1521 -0.8125 -0.4015
    7CLSA   H65  136   5.985   1.382   2.036  0.2853  1.5466 -1.7088
    7CLSA   H66  137   5.796   1.652   2.254  0.9176 -0.2995 -0.4455
    7CLSA   O31  138   5.955   1.609   1.866 -0.0022 -0.0131  0.5241
    7CLSA   H67  139   5.911   1.691   1.838 -1.2914 -0.9604 -0.3319
    7CLSA   O32  140   6.155   1.499   2.036 -0.7500  0.2204 -0.1570
    7CLSA   H68  141   6.143   1.566   1.967 -2.0797  1.4694  1.2199
    7CLSA   O33  142   5.873   1.461   2.273  0.3695  1.0262  0.3895
    7CLSA   C42  143   5.641   1.505   2.260  0.7549 -0.0692 -0.1002
    7CLSA   H69  144   5.640   1.502   2.369  0.8643 -2.9632 -0.1017
    7CLSA   H70  145   5.564   1.576   2.227 -0.3864 -1.0351  0.3901
    7CLSA   O34  146   5.608   1.382   2.214 -0.5194  0.1349 -0.1462
    7CLSA   H71  147   5.586   1.322   2.288 -1.5826 -0.8624 -1.2306
    7CLSA   O35  148   6.075   1.369   2.300  0.1102  0.4718  0.1126
    8CLSB   C43  149   6.067   1.373   2.445  0.2891 -0.4064  0.0960
    8CLSB   C44  150   6.003   1.259   2.649  0.1956 -0.2703  0.1374
    8CLSB   C45  151   6.021   1.232   2.501  0.2554 -0.9966  0.7682
    8CLSB   C46  152   6.210   1.396   2.498 -0.2271 -0.1878 -0.2099
    8CLSB   C47  153   6.138   1.300   2.710 -0.1575 -0.4099 -0.0856
    8CLSB   H72  154   5.923   1.207   2.457  0.4259  0.0395 -0.2501
    8CLSB   H73  155   5.937   1.346   2.659  0.0340 -0.1939 -1.3637
    8CLSB   H74  156   6.279   1.314   2.476  0.4730  0.0797  0.9590
    8CLSB   H75  157   6.198   1.208   2.702  3.0477  1.1245  3.1415
    8CLSB   H76  158   5.996   1.449   2.481  1.2424  0.5833 -0.0618
    8CLSB   O36  159   6.195   1.415   2.644  0.5068 -0.3951  0.2507
    8CLSB   C48  160   6.281   1.520   2.441  0.3958 -0.1255  0.0174
    8CLSB   H77  161   6.377   1.523   2.493 -0.8008  1.4190  2.3288
    8CLSB   H78  162   6.298   1.507   2.333 -0.6083  0.9616 -0.2944
    8CLSB   O37  163   6.212   1.645   2.454  0.2232  0.5260  0.4248
    8CLSB   H79  164   6.171   1.648   2.542  0.9152  0.6782  0.7537
    8CLSB   O38  165   5.952   1.147   2.713 -0.3603 -0.3119  0.6110
    8CLSB   H80  166   5.945   1.177   2.805 -3.1515  0.4177  0.2407
    8CLSB   O39  167   6.115   1.127   2.473  0.4383 -0.2916 -0.0169
    8CLSB   H81  168   6.144   1.119   2.381 -0.3394 -2.8144 -0.1282
    8CLSB   O40  169   6.126   1.318   2.853 -0.7665 -0.1570 -0.6801
    9CLSA   C49  170   6.242   1.339   2.941 -0.2416 -0.2704  0.3484
    9CLSA   C50  171   6.341   1.382   3.226  0.3702 -0.4389  0.5440
    9CLSA   C51  172   6.249   1.227   3.056  0.8756  0.8042  0.1520
    9CLSA   C52  173   6.237   1.482   3.012  0.4761 -0.3671  0.2264
    9CLSA   C53  174   6.335   1.501   3.125  0.0396 -0.6050  0.1782
    9CLSA   H82  175   6.253   1.376   3.292 -0.4271  1.1602 -0.2995
    9CLSA   H83  176   6.330   1.320   2.878  0.2078 -0.5847  1.0616
    9CLSA   H84  177   6.139   1.490   3.059 -0.0790 -2.3718 -0.4453
    9CLSA   H85  178   6.435   1.508   3.081  0.8079 -0.1033  1.9105
    9CLSA   H86  179   6.151   1.220   3.104  1.4225 -2.0776  1.0624
    9CLSA   O41  180   6.261   1.587   2.919  0.0439 -0.5677  0.2325
    9CLSA   H87  181   6.208   1.583   2.837 -0.6671  3.3067  0.2986
    9CLSA   O42  182   6.299   1.632   3.186 -0.1922  0.0033 -0.1748
    9CLSA   H88  183   6.274   1.688   3.110 -2.4530  0.0818  0.5565
    9CLSA   O43  184   6.356   1.258   3.158 -0.5799 -0.1987  0.7998
    9CLSA   C54  185   6.268   1.087   2.994 -0.1234 -0.6940 -0.3280
    9CLSA   H89  186   6.181   1.060   2.934  0.2321 -1.7087 -0.4025
    9CLSA   H90  187   6.356   1.088   2.928  0.0176  0.6370 -0.1392
    9CLSA   O44  188   6.287   0.994   3.100  0.4191 -0.2875  0.5683
    9CLSA   H91  189   6.359   1.033   3.154  0.3084  1.7578 -0.6371
    9CLSA   O45  190   6.447   1.409   3.313  0.0720 -0.6286  0.0317
   10CLSB   C55  191   6.444   1.351   3.449  0.1310  0.7010 -0.4144
   10CLSB   C56  192   6.511   1.148   3.597  0.3035  0.4613 -0.5569
   10CLSB   C57  193   6.496   1.199   3.453  0.5925  0.3698 -0.1166
   10CLSB   C58  194   6.522   1.443   3.544 -1.0160  0.1161 -0.3263
   10CLSB   C59  195   6.591   1.256   3.673 -0.2536 -0.6666 -0.8364
   10CLSB   H92  196   6.411   1.146   3.408  0.5438  0.6870 -0.4003
   10CLSB   H93  197   6.410   1.134   3.639 -0.7758  0.8467 -2.8441
   10CLSB   H94  198   6.621   1.461   3.501 -1.0232 -2.2728 -1.4779
   10CLSB   H95  199   6.688   1.275   3.626  0.8747 -0.0949  1.5883
   10CLSB   H96  200   6.345   1.345   3.495  0.6118  0.6107  0.6492
   10CLSB   O46  201   6.521   1.376   3.671 -0.1459 -0.2392 -0.5775
   10CLSB   C60  202   6.464   1.586   3.558  0.2458 -0.7916 -0.1316
   10CLSB   H97  203   6.469   1.653   3.472  0.0810 -0.5031  0.0792
   10CLSB   H98  204   6.357   1.579   3.584 -0.0527 -0.8964 -1.3422
   10CLSB   O47  205   6.528   1.649   3.670 -0.3051  0.1791  0.9344
   10CLSB   H99  206   6.474   1.611   3.741 -0.2731 -2.3315 -0.2897
   10CLSB   O48  207   6.580   1.022   3.601  0.0857 -0.3660 -0.2153
   10CLSB  H100  208   6.512   0.955   3.582 -0.4253 -0.4642  1.7467
   10CLSB   O49  209   6.617   1.190   3.362 -0.1389  0.1091 -0.5153
   10CLSB  H101  210   6.703   1.205   3.405 -0.6036 -0.2265  0.5788
   10CLSB   O50  211   6.611   1.222   3.806  0.2562  0.3445  0.3281
   10CLSB  H102  212   6.538   1.161   3.825 -1.3173  1.4910 -1.6179
   11SOL     OW  213   3.004   3.242   1.039  0.1280 -0.0128 -0.3466
   11SOL    HW1  214   2.917   3.253   1.087  0.6639 -0.5301  0.7747
   11SOL    HW2  215   3.023   3.325   0.986 -1.6246 -0.3455 -1.6213
   12SOL     OW  216   3.317   0.755   0.677  0.4315  0.4386 -0.1258
   12SOL    HW1  217   3.315   0.655   0.689 -0.4738  0.5903  1.2576
   12SOL    HW2  218   3.244   0.796   0.733  2.1095  2.0380  0.9863
   13SOL     OW  219   1.680   2.696   1.967  0.3862  0.2067  0.8168
   13SOL    HW1  220   1.671   2.759   1.890  2.5548  0.4069  0.6571
   13SOL    HW2  221   1.756   2.725   2.024  0.4111 -1.3677  1.6392
   14SOL     OW  222   1.899   3.029   0.953  0.1317  0.2940  0.1148
   14SOL    HW1  223   1.835   3.025   0.876  1.1376 -0.4200 -0.7303
   14SOL    HW2  224   1.976   3.087   0.928  1.4066 -1.4396 -0.2172
   15SOL     OW  225   2.380   0.286   3.581 -0.5802  0.4971  0.6464
   15SOL    HW1  226   2.281   0.300   3.582 -0.8827 -0.7390 -1.7241
   15SOL    HW2  227   2.405   0.218   3.650 -1.5915 -0.0733  0.4644
   16SOL     OW  228   2.792   2.408   2.825 -0.1768 -0.0670  0.9135
   16SOL    HW1  229   2.875   2.456   2.855 -0.3465  1.0754 -0.3340
   16SOL    HW2  230   2.818   2.321   2.784  1.0076  1.8965 -3.1651
   17SOL     OW  231   2.521   1.946   0.948  0.0099  0.3152 -0.1595
   17SOL    HW1  232   2.537   1.924   0.852  0.5873 -0.3173  0.0729
   17SOL    HW2  233   2.541   2.043   0.963  5.5974 -0.6094  0.4010
   18SOL     OW  234   3.036   1.178   2.806 -0.2836  0.0187 -0.4185
   18SOL    HW1  235   3.104   1.105   2.808 -2.1706 -1.8832 -1.1873
   18SOL    HW2  236   3.018   1.208   2.899  2.5494  1.6011 -0.2729
   19SOL     OW  237   1.036   2.424   3.184  0.1201 -0.1703 -0.1324
   19SOL    HW1  238   0.961   2.391   3.127 -0.2162  0.9744 -0.3749
   19SOL    HW2  239   1.117   2.441   3.127 -0.2160  0.9730 -0.2952
   20SOL     OW  240   1.417   2.313   2.756 -0.2250 -0.4188  0.0991
   20SOL    HW1  241   1.429   2.325   2.854  0.2384 -0.7282  0.0810
   20SOL    HW2  242   1.478   2.241   2.724  0.1912  0.2069 -0.5461
   21SOL     OW  243   2.527   1.973   3.471 -0.3375  0.1284  0.2797
   21SOL    HW1  244   2.438   1.978   3.427 -1.3578  2.0407  2.3668
   21SOL    HW2  245   2.587   2.045   3.436 -0.0009 -0.4038 -0.2634
   22SOL     OW  246   2.097   1.877   1.294 -0.2153  0.1045 -0.0335
   22SOL    HW1  247   2.069   1.817   1.218  0.5591  0.0703 -0.3058
   22SOL    HW2  248   2.155   1.825   1.357  1.1711  0.7671 -0.7168
   23SOL     OW  249   1.719   0.116   3.112  0.0393 -0.4449 -0.4997
   23SOL    HW1  250   1.734   0.059   3.193  0.9049  0.5477  0.0646
   23SOL    HW2  251   1.807   0.150   3.079 -0.4932  1.0722 -0.4251
   24SOL     OW  252   0.064   3.273   1.131 -0.4429  0.4308  0.3297
   24SOL    HW1  253   0.065   3.204   1.059  0.3862  0.8104 -0.0428
   24SOL    HW2  254   0.031   3.232   1.216 -2.3667  0.2269 -0.4879
   25SOL     OW  255   0.007   0.393   3.378  0.2558 -0.5229  0.0406
   25SOL    HW1  256  -0.082   0.436   3.393  0.4344 -0.2510  0.3367
   25SOL    HW2  257   0.073   0.430   3.444  0.5785 -0.7473 -0.1535
   26SOL     OW  258   0.120   0.182   1.034  0.3163 -0.7776 -0.3025
   26SOL    HW1  259   0.104   0.183   1.133 -0.2479 -0.2770 -0.3901
   26SOL    HW2  260   0.044   0.229   0.989  0.8025 -0.5926 -0.9362
   27SOL     OW  261   0.554   3.042   0.269  0.1856  0.0079  0.1621
   27SOL    HW1  262   0.585   2.986   0.192 -0.6672  2.6839 -2.2921
   27SOL    HW2  263   0.457   3.060   0.259  0.1376  0.7652  1.6977
   28SOL     OW  264   3.471   1.933   1.416 -0.4828  0.1722 -0.5461
   28SOL    HW1  265   3.506   2.013   1.368  2.1041 -1.0713 -0.8596
   28SOL    HW2  266   3.537   1.903   1.485 -1.7055 -1.2687  0.0730
   29SOL     OW  267   3.420   1.259   2.713 -0.0203  0.1869  0.2196
   29SOL    HW1  268   3.348   1.194   2.736  0.0702  0.8139  2.4810
   29SOL    HW2  269   3.477   1.220   2.640 -0.0906 -2.1983  1.3277
   30SOL     OW  270   2.609   3.149   1.980 -0.1426  0.4702  0.0848
   30SOL    HW1  271   2.643   3.076   1.921  0.1463  0.2602  0.5122
   30SOL    HW2  272   2.550   3.109   2.050 -0.4844  0.7206 -0.0554
   31SOL     OW  273   0.993   2.783   2.164 -0.2116  0.4232 -0.1630
   31SOL    HW1  274   0.987   2.830   2.252 -0.5970  1.0271 -0.5070
   31SOL    HW2  275   1.071   2.720   2.166  0.3535  1.1168  0.2875
   32SOL     OW  276   0.585   0.440   1.652 -0.2605 -0.0692  0.3080
   32SOL    HW1  277   0.676   0.407   1.675  0.2449  1.2276  0.2649
   32SOL    HW2  278   0.590   0.493   1.567 -1.4090 -1.5664 -0.7575
   33SOL     OW  279   1.618   0.176   2.030  0.3444 -0.0597  0.0892
   33SOL    HW1  280   1.656   0.118   2.102  1.1939 -1.3286 -1.3270
   33SOL    HW2  281   1.522   0.195   2.051  0.6318 -0.1941  1.6577
   34SOL     OW  282   1.254   1.748   2.153  0.4256 -0.4108 -0.5660
   34SOL    HW1  283   1.347   1.766   2.124  0.5149 -0.8582 -0.5660
   34SOL    HW2  284   1.225   1.659   2.118 -0.1867 -0.0454 -1.0162
   35SOL     OW  285   0.314   2.229   1.212 -0.0672 -0.2707 -0.0891
   35SOL    HW1  286   0.260   2.170   1.152 -0.7631  0.9175 -0.6658
   35SOL    HW2  287   0.408   2.235   1.176 -0.4814  0.4384 -1.0883
   36SOL     OW  288   2.536   0.531   3.582  0.1004  0.3520 -0.4141
   36SOL    HW1  289   2.503   0.437   3.585 -0.2069  0.4457 -0.8352
   36SOL    HW2  290   2.586   0.547   3.497  0.6973  0.3932 -0.0636
   37SOL     OW  291   2.469   0.477   1.044  0.4082  0.7389 -0.1984
   37SOL    HW1  292   2.557   0.514   1.013  0.9732  0.6281  1.1872
   37SOL    HW2  293   2.408   0.467   0.965  1.7932  0.3736 -1.2788
   38SOL     OW  294   1.479   3.222   0.488  0.2213 -0.3360 -0.5318
   38SOL    HW1  295   1.556   3.171   0.447  0.5325 -0.7767  0.5616
   38SOL    HW2  296   1.402   3.159   0.501  0.1744 -0.2336 -0.3145
   39SOL     OW  297   1.876   0.146   1.745  0.5267  0.1177  0.2987
   39SOL    HW1  298   1.778   0.165   1.753  0.3734 -0.3517 -0.3852
   39SOL    HW2  299   1.892   0.048   1.753  0.7717  0.0262 -0.9773
   40SOL     OW  300   0.324   1.680   3.022 -0.3648  0.4032  0.1614
   40SOL    HW1  301   0.387   1.756   3.037  0.4707  0.0589 -1.3373
   40SOL    HW2  302   0.303   1.636   3.109  4.9081 -2.1619  0.5147
   41SOL     OW  303   3.170   3.268   2.166  0.2115 -0.2613  0.4129
   41SOL    HW1  304   3.084   3.217   2.177  0.5005 -1.2906 -1.6249
   41SOL    HW2  305   3.149   3.365   2.155 -0.6136 -0.3632  1.0122
   42SOL     OW  306   1.166   1.038   1.589 -0.0078 -0.3091 -0.2071
   42SOL    HW1  307   1.148   0.957   1.534  1.6673  0.0396 -1.3402
   42SOL    HW2  308   1.265   1.046   1.605  0.2231  2.8290 -2.2948
   43SOL     OW  309   2.493   2.245   2.279  0.2738  0.4866 -0.2230
   43SOL    HW1  310   2.445   2.300   2.211 -1.8282  0.8002  1.4322
   43SOL    HW2  311   2.454   2.262   2.369  3.4241  0.6590  1.2737
   44SOL     OW  312   1.765   0.769   2.211  0.0525 -0.3430 -0.1837
   44SOL    HW1  313   1.737   0.861   2.184  0.9465  0.0848  0.2994
   44SOL    HW2  314   1.747   0.756   2.309 -2.4642 -1.6118 -0.7381
   45SOL     OW  315   0.570   3.153   3.210  0.4514  0.3005 -0.2563
   45SOL    HW1  316   0.484   3.130   3.256 -0.3023  2.8007 -0.2984
   45SOL    HW2  317   0.646   3.138   3.273 -0.3623  1.4517  1.0444
   46SOL     OW  318   0.369   0.540   0.951  0.0590 -0.0644  0.4040
   46SOL    HW1  319   0.333   0.452   0.982 -0.3675 -0.2802 -0.6703
   46SOL    HW2  320   0.453   0.525   0.900  1.4130  0.3897  2.3676
   47SOL     OW  321   2.095   1.889   2.472  0.3472 -0.0858  0.2391
   47SOL    HW1  322   2.095   1.919   2.377  1.2092  0.5939  0.4500
   47SOL    HW2  323   2.001   1.870   2.500 -0.0201  0.6858 -0.4367
   48SOL     OW  324   3.281   1.063   0.292  0.3644 -0.1552  0.3879
   48SOL    HW1  325   3.350   1.121   0.334  0.1512 -0.6412  1.4541
   48SOL    HW2  326   3.190   1.089   0.326  0.0662  0.1180 -0.5745
   49SOL     OW  327   2.693   1.618   1.078 -0.5272  0.1980  0.0800
   49SOL    HW1  328   2.642   1.599   1.162 -0.4842 -1.1184 -0.1715
   49SOL    HW2  329   2.713   1.716   1.073  1.5642  0.0415  2.8010
   50SOL     OW  330   0.105   0.458   0.406 -0.0806 -0.0841  0.1120
   50SOL    HW1  331   0.044   0.394   0.359 -1.4566  1.1858  0.1036
   50SOL    HW2  332   0.062   0.489   0.491  1.3119 -0.4468  0.9952
   51SOL     OW  333   1.623   3.208   1.443 -0.3152  0.2599 -0.2918
   51SOL    HW1  334   1.589   3.284   1.388 -0.7975  1.6610  1.8084
   51SOL    HW2  335   1.555   3.186   1.514  1.5653  0.6788  1.7358
   52SOL     OW  336   2.258   3.156   0.327  0.1495  0.6049 -0.2079
   52SOL    HW1  337   2.289   3.076   0.378 -2.4125  0.9329  2.0508
   52SOL    HW2  338   2.204   3.125   0.248 -1.0704  0.0399  0.8096
   53SOL     OW  339   1.873   1.850   0.308  0.2053  0.5209  0.5982
   53SOL    HW1  340   1.907   1.943   0.325 -0.1380  0.9391 -0.8817
   53SOL    HW2  341   1.805   1.828   0.378  1.7394  0.5609  2.1980
   54SOL     OW  342   2.797   2.866   0.632  0.1278  0.2663 -0.0781
   54SOL    HW1  343   2.836   2.946   0.678  1.0886  0.8603 -1.8483
   54SOL    HW2  344   2.795   2.882   0.534 -0.6259 -1.4951 -0.3815
   55SOL     OW  345   1.857   0.422   1.009  0.4241  0.5066  0.4697
   55SOL    HW1  346   1.856   0.357   1.086 -0.8347 -0.7998 -0.6038
   55SOL    HW2  347   1.893   0.376   0.928 -2.1039  0.5511 -0.7677
   56SOL     OW  348   0.722   1.303   1.178 -0.1508 -0.5217 -0.5999
   56SOL    HW1  349   0.813   1.276   1.148 -0.7849 -2.1302 -1.2243
   56SOL    HW2  350   0.668   1.332   1.099 -0.0435  0.9841 -0.1633
   57SOL     OW  351   2.737   1.596   1.787 -0.0066 -0.0073  0.6098
   57SOL    HW1  352   2.787   1.530   1.843 -0.8278 -2.0254 -0.9273
   57SOL    HW2  353   2.800   1.637   1.721  0.5334  0.8990  1.6505
   58SOL     OW  354   0.250   1.809   0.541 -0.2419  0.5169  0.2249
   58SOL    HW1  355   0.307   1.781   0.619  0.8047  0.4779 -0.5375
   58SOL    HW2  356   0.196   1.888   0.568  0.4928  0.8322  0.8454
   59SOL     OW  357   0.401   1.238   1.511  0.4654  0.0221 -0.4056
   59SOL    HW1  358   0.304   1.260   1.517  0.6360  0.4451  1.5265
   59SOL    HW2  359   0.411   1.141   1.486 -0.5221 -0.4695  0.9559
   60SOL     OW  360   0.982   2.768   1.629  0.2621 -0.8029  0.2879
   60SOL    HW1  361   0.985   2.824   1.712 -0.4455  0.3111 -0.4003
   60SOL    HW2  362   1.064   2.711   1.624  0.4624 -0.6620  1.5845
   61SOL     OW  363   1.883   3.278   0.602 -0.0480 -0.0771  0.3882
   61SOL    HW1  364   1.897   3.251   0.506 -2.7387  1.8254 -0.6637
   61SOL    HW2  365   1.806   3.225   0.639 -1.1059  1.4113  0.3983
   62SOL     OW  366   1.114   2.399   0.107 -0.0753  0.5005 -0.4729
   62SOL    HW1  367   1.096   2.462   0.031 -0.5351  0.1235 -0.6856
   62SOL    HW2  368   1.105   2.305   0.074 -0.2211  0.3320  0.0324
   63SOL     OW  369   1.636   3.087   1.204 -0.5144  0.3074 -0.3743
   63SOL    HW1  370   1.539   3.064   1.202 -0.8810  1.5762  0.8912
   63SOL    HW2  371   1.657   3.132   1.290  0.9764  1.0541 -1.0887
   64SOL     OW  372   1.279   2.353   1.546 -0.2894 -0.2049  0.2106
   64SOL    HW1  373   1.267   2.260   1.581 -2.2987  1.0784  3.3977
   64SOL    HW2  374   1.192   2.385   1.508  0.3194  0.4893 -0.6416
   65SOL     OW  375   3.455   2.735   2.154 -0.0267 -0.4679 -0.0274
   65SOL    HW1  376   3.426   2.655   2.206 -0.8670 -1.0419 -1.3019
   65SOL    HW2  377   3.546   2.719   2.117  0.2517 -0.3776  0.6091
   66SOL     OW  378   2.182   2.581   1.036  0.2685  0.5466 -0.3930
   66SOL    HW1  379   2.146   2.674   1.026  0.2502  0.9484  2.6866
   66SOL    HW2  380   2.276   2.585   1.070 -0.2471 -0.5150  1.2713
   67SOL     OW  381   3.289   1.161   1.077  0.7307 -0.3928  0.6579
   67SOL    HW1  382   3.256   1.093   1.142 -0.6617  0.8831  1.3622
   67SOL    HW2  383   3.377   1.198   1.109  0.1717  0.0598  1.7257
   68SOL     OW  384   2.891   0.194   1.581  0.3440 -0.5619  0.2437
   68SOL    HW1  385   2.867   0.248   1.662  1.0991 -1.1612  0.8886
   68SOL    HW2  386   2.873   0.098   1.599 -0.1570 -0.6335 -0.5793
   69SOL     OW  387   0.928   0.797   0.159 -0.0292 -0.7784 -0.2122
   69SOL    HW1  388   1.021   0.835   0.158 -0.2665 -0.1882 -0.7409
   69SOL    HW2  389   0.887   0.810   0.069 -0.2574 -1.9832 -0.2939
   70SOL     OW  390   2.290   0.951   0.231 -0.5570  0.1723  0.3158
   70SOL    HW1  391   2.353   0.940   0.308 -2.1623  0.9143  1.8005
   70SOL    HW2  392   2.298   1.044   0.195 -1.1748  0.4543  0.8819
   71SOL     OW  393   2.865   2.943   1.407  0.4085 -0.5424  0.3014
   71SOL    HW1  394   2.862   3.016   1.339 -2.5709 -1.1741 -0.3893
   71SOL    HW2  395   2.792   2.957   1.474  2.9241 -0.2095  3.2512
   72SOL     OW  396   1.357   3.054   3.109  0.0917 -0.0801  0.6604
   72SOL    HW1  397   1.373   3.091   3.017 -1.4127 -0.0453  0.3882
   72SOL    HW2  398   1.434   3.078   3.167  0.5872  0.8207 -0.3231
   73SOL     OW  399   0.833   0.263   1.750  0.0032  0.6873 -0.3276
   73SOL    HW1  400   0.884   0.328   1.807 -0.0190  0.0492  0.4287
   73SOL    HW2  401   0.753   0.231   1.801  0.0875 -0.0396 -0.6440
   74SOL     OW  402   1.266   0.442   2.372 -0.0877 -0.2238  0.6833
   74SOL    HW1  403   1.195   0.397   2.319 -0.2318  0.0759  0.6197
   74SOL    HW2  404   1.325   0.373   2.414 -0.4364 -0.4697  0.7664
   75SOL     OW  405   1.704   2.061   3.497 -0.1881 -0.5070 -0.2455
   75SOL    HW1  406   1.608   2.090   3.501  0.2587  0.9614  0.4668
   75SOL    HW2  407   1.722   1.997   3.572 -0.4623 -0.3498 -0.0445
   76SOL     OW  408   0.737   3.070   2.412 -0.1950  0.6883 -0.4058
   76SOL    HW1  409   0.769   3.093   2.504 -0.4330 -0.3537 -0.0406
   76SOL    HW2  410   0.812   3.080   2.347 -0.2690  2.3669 -0.2788
   77SOL     OW  411   2.719   1.912   0.659 -0.2598  0.1900  0.4988
   77SOL    HW1  412   2.684   1.966   0.582 -0.0254 -0.9814 -0.4742
   77SOL    HW2  413   2.673   1.823   0.659 -0.1182  0.1084  1.6121
   78SOL     OW  414   3.588   1.335   0.987 -0.1566 -0.1823  0.1456
   78SOL    HW1  415   3.596   1.267   1.060 -2.5754 -2.1879 -1.3008
   78SOL    HW2  416   3.533   1.412   1.020 -0.4004 -0.6069  0.7510
   79SOL     OW  417   3.381   0.510   2.035 -0.0601  0.1219 -0.5997
   79SOL    HW1  418   3.427   0.505   1.946  0.8291  0.7316 -0.1895
   79SOL    HW2  419   3.300   0.568   2.027 -1.9309 -2.4447 -1.7875
   80SOL     OW  420   2.272   1.472   1.388 -0.1449  0.1663 -0.4681
   80SOL    HW1  421   2.276   1.536   1.464 -1.1042  0.7742 -0.9098
   80SOL    HW2  422   2.317   1.387   1.414  1.4251  1.1038  0.0228
   81SOL     OW  423   0.009   1.415   3.564 -0.1079  0.0262 -0.2812
   81SOL    HW1  424   0.005   1.472   3.647  1.7783  0.9572 -0.7740
   81SOL    HW2  425   0.070   1.338   3.581  0.4624  0.3439 -0.8564
   82SOL     OW  426   1.464   0.004   0.832  0.0669  0.2587  0.2862
   82SOL    HW1  427   1.477  -0.087   0.794 -0.8257  0.0721  0.4064
   82SOL    HW2  428   1.407   0.058   0.769 -0.5985  0.2644  0.8902
   83SOL     OW  429   1.611   1.230   1.318  0.2259 -0.4181  0.4078
   83SOL    HW1  430   1.586   1.317   1.362  1.6867  0.3046 -0.1340
   83SOL    HW2  431   1.707   1.210   1.337  0.2063 -1.3618 -0.4008
   84SOL     OW  432   0.427   2.464   3.067 -0.1459  0.1719 -0.2067
   84SOL    HW1  433   0.448   2.373   3.104  0.0297 -0.2512 -1.3127
   84SOL    HW2  434   0.330   2.483   3.080 -0.5257 -0.8638 -1.3967
   85SOL     OW  435   1.139   0.817   0.822 -0.7394  0.0166  0.2811
   85SOL    HW1  436   1.090   0.745   0.773  0.0584  0.5076 -1.3413
   85SOL    HW2  437   1.190   0.777   0.898 -1.6106 -0.8615  0.4263
   86SOL     OW  438   0.777   2.961   0.745 -0.5800 -0.0268  0.1277
   86SOL    HW1  439   0.705   2.989   0.808 -0.6625 -1.3850  0.6711
   86SOL    HW2  440   0.756   2.997   0.654 -0.2298  2.3364  0.9083
   87SOL     OW  441   1.597   3.296   2.122 -0.2431 -0.5818 -0.2428
   87SOL    HW1  442   1.556   3.369   2.066  1.0731  0.6541  0.3330
   87SOL    HW2  443   1.544   3.285   2.206  0.4799  0.9317  0.4491
   88SOL     OW  444   2.456   0.115   3.385  0.0239  0.2846  0.1131
   88SOL    HW1  445   2.498   0.164   3.308  1.0070 -0.8218 -0.0801
   88SOL    HW2  446   2.446   0.177   3.463 -1.7671  1.6727 -1.1267
   89SOL     OW  447   1.630   1.754   0.774 -0.2604 -0.4823  0.4207
   89SOL    HW1  448   1.558   1.799   0.828 -0.2145 -1.4778  1.3377
   89SOL    HW2  449   1.654   1.667   0.817  0.3969 -0.8990 -0.7456
   90SOL     OW  450   3.073   1.453   2.766 -0.4492  0.8128 -0.2031
   90SOL    HW1  451   2.979   1.484   2.780 -0.7070 -0.0310 -0.0315
   90SOL    HW2  452   3.076   1.353   2.769  0.2751  0.7820 -1.3111
   91SOL     OW  453   0.587   3.413   3.409  0.0478 -0.4525 -0.1943
   91SOL    HW1  454   0.644   3.333   3.430  0.4983 -0.6911 -2.1595
   91SOL    HW2  455   0.491   3.385   3.405 -0.0320 -0.4504  1.1162
   92SOL     OW  456   0.608   3.437   1.555  0.0387  0.1656 -0.0742
   92SOL    HW1  457   0.596   3.364   1.487 -0.6691  1.8454 -1.8343
   92SOL    HW2  458   0.591   3.399   1.646 -1.7945 -1.5657 -1.0335
   93SOL     OW  459   1.947   2.849   1.405  0.5768  0.7023  0.1335
   93SOL    HW1  460   2.009   2.899   1.345  1.8031 -0.7184  0.1635
   93SOL    HW2  461   1.900   2.778   1.353  0.5265  0.4312  0.5382
   94SOL     OW  462   1.691   3.510   3.318  0.5189 -0.0837 -0.6508
   94SOL    HW1  463   1.644   3.439   3.266  2.3743 -2.3700  0.6146
   94SOL    HW2  464   1.650   3.519   3.408  2.1071 -1.8212  0.3183
   95SOL     OW  465   3.550   2.282   0.940 -0.5924  0.2401 -0.5080
   95SOL    HW1  466   3.624   2.283   0.873 -0.1755  0.0842 -0.0550
   95SOL    HW2  467   3.535   2.188   0.971  0.3761  0.5047  0.8726
   96SOL     OW  468   2.818   2.605   2.533  0.1311  0.0429 -0.1565
   96SOL    HW1  469   2.767   2.520   2.542 -0.1550  0.0181 -1.7046
   96SOL    HW2  470   2.761   2.682   2.560  0.6730 -0.2785  2.0995
   97SOL     OW  471   1.526   2.390   3.353 -0.7254  0.0173 -0.6135
   97SOL    HW1  472   1.437   2.352   3.376 -0.3632 -0.3920  0.1351
   97SOL    HW2  473   1.580   2.321   3.303  0.4994 -1.0843  2.0493
   98SOL     OW  474   2.040   2.663   3.459  0.0282  0.0381 -0.2859
   98SOL    HW1  475   2.038   2.568   3.487 -1.6234 -0.2654 -1.3517
   98SOL    HW2  476   2.008   2.671   3.365  1.1985  1.5319 -0.6053
   99SOL     OW  477   1.584   1.262   1.598  0.0880 -0.3909 -0.4225
   99SOL    HW1  478   1.668   1.241   1.547 -0.1577 -0.9023 -0.6291
   99SOL    HW2  479   1.532   1.177   1.611 -0.1189 -0.1718  0.2090
  100SOL     OW  480   0.150   0.042   3.063  0.5321  0.2816  0.7206
  100SOL    HW1  481   0.059   0.034   3.023  0.5558 -0.7713  0.8417
  100SOL    HW2  482   0.156   0.126   3.117 -0.6877 -0.1088  1.5012
  101SOL     OW  483   3.334   2.448   2.939  0.0874 -0.0284 -0.5077
  101SOL    HW1  484   3.324   2.467   3.037  0.9698 -1.1275 -0.1763
  101SOL    HW2  485   3.426   2.412   2.922 -0.6519 -1.5771 -1.4312
  102SOL     OW  486   0.226   1.887   1.267 -0.4470  0.0354  0.3725
  102SOL    HW1  487   0.175   1.936   1.197  0.1324 -0.9219 -0.7377
  102SOL    HW2  488   0.262   1.954   1.333  1.1931  1.2572 -1.6416
  103SOL     OW  489   0.178   1.708   2.536  0.1926 -0.3347 -0.3884
  103SOL    HW1  490   0.222   1.641   2.596 -1.8623 -0.3364  1.2363
  103SOL    HW2  491   0.091   1.670   2.504 -0.4733  1.1082 -0.3614
  104SOL     OW  492   3.113   1.343   1.148  0.1930  0.4748  0.4933
  104SOL    HW1  493   3.156   1.268   1.098 -0.1353 -1.2574  2.6279
  104SOL    HW2  494   3.015   1.343   1.129  0.1208  0.0303  0.8299
  105SOL     OW  495   1.151   0.848   2.790  0.1242 -0.1268  0.0698
  105SOL    HW1  496   1.196   0.873   2.704 -0.6079  1.7835  0.2070
  105SOL    HW2  497   1.170   0.751   2.809  2.0079 -0.0713 -1.1688
  106SOL     OW  498   0.205   0.667   2.695 -0.4150  0.2136 -0.7640
  106SOL    HW1  499   0.231   0.585   2.643  0.0562  0.2235 -0.5538
  106SOL    HW2  500   0.180   0.740   2.631 -0.1160  0.1383 -0.9716
  107SOL     OW  501   0.477   2.242   2.476 -0.3540 -0.1263  0.4020
  107SOL    HW1  502   0.421   2.280   2.402 -0.9967 -0.8180  0.5228
  107SOL    HW2  503   0.564   2.212   2.439 -0.1031  0.8278  0.1821
  108SOL     OW  504   0.921   0.910   2.461  0.3266 -0.3183  0.2265
  108SOL    HW1  505   0.863   0.852   2.403  0.0681 -1.7613  1.8506
  108SOL    HW2  506   1.004   0.860   2.485  1.0468  0.7621  0.0571
  109SOL     OW  507   1.641   3.232   0.975  0.0452  0.0594 -0.0158
  109SOL    HW1  508   1.690   3.166   1.032  0.3861 -0.3027 -0.7143
  109SOL    HW2  509   1.691   3.243   0.889 -0.7737  0.1496 -0.4819
  110SOL     OW  510   0.300   1.208   0.350 -0.0951  0.0612  0.2133
  110SOL    HW1  511   0.204   1.211   0.324  0.5677  0.8202 -2.5767
  110SOL    HW2  512   0.344   1.294   0.324  1.5239 -0.6165  0.5478
  111SOL     OW  513   1.149   0.417   0.366  0.4767 -0.5888 -0.0619
  111SOL    HW1  514   1.229   0.365   0.335  0.7047 -0.1298 -0.2555
  111SOL    HW2  515   1.074   0.404   0.300  0.0691 -1.7709  0.5987
  112SOL     OW  516   1.543   3.366   0.692 -0.3002  0.6486 -0.2744
  112SOL    HW1  517   1.620   3.427   0.675  0.1821  0.0876 -0.1345
  112SOL    HW2  518   1.528   3.308   0.611  0.9651 -0.9012  0.5598
  113SOL     OW  519   2.818   0.782   3.558  0.7630  0.1616  0.0494
  113SOL    HW1  520   2.781   0.726   3.484  0.6324  0.4839 -0.1271
  113SOL    HW2  521   2.886   0.728   3.608  0.7916 -0.0861 -0.2527
  114SOL     OW  522   0.508   0.178   1.299 -0.3610 -0.0681  0.3226
  114SOL    HW1  523   0.496   0.086   1.263 -1.8597  0.0272  0.4938
  114SOL    HW2  524   0.562   0.173   1.383 -0.7804 -0.8480  0.5579
  115SOL     OW  525   3.391   1.769   2.382  0.0106  0.2130 -0.5879
  115SOL    HW1  526   3.429   1.856   2.350 -0.2072  0.4080 -0.3281
  115SOL    HW2  527   3.327   1.734   2.314  1.9010 -0.9739 -1.8128
  116SOL     OW  528   3.389   0.660   2.268  0.7267  0.2817 -0.4052
  116SOL    HW1  529   3.459   0.729   2.252  0.3207  0.7416 -0.2203
  116SOL    HW2  530   3.383   0.600   2.188  1.7005 -0.1021 -0.2083
  117SOL     OW  531   0.145   1.058   1.764 -0.0422 -0.5167 -0.3467
  117SOL    HW1  532   0.221   0.997   1.785  0.0735 -1.0126 -2.0861
  117SOL    HW2  533   0.098   1.082   1.849  1.0688 -1.4893  0.5726
  118SOL     OW  534   2.753   3.352   2.765 -0.5853 -0.6036 -0.2832
  118SOL    HW1  535   2.844   3.314   2.782 -0.8683 -1.7905 -1.2721
  118SOL    HW2  536   2.761   3.448   2.740  0.4054 -0.7391 -0.5067
  119SOL     OW  537   3.007   2.700   1.773  0.2675 -0.1966  0.9077
  119SOL    HW1  538   2.982   2.771   1.708  1.3748  1.0316  1.7657
  119SOL    HW2  539   2.936   2.693   1.844  0.8644  1.1763  1.6815
  120SOL     OW  540   2.068   2.339   1.309  0.3694  0.5945 -0.3691
  120SOL    HW1  541   2.013   2.354   1.227  0.0622 -3.1849 -1.0355
  120SOL    HW2  542   2.007   2.311   1.384  1.0268 -0.5257 -0.2301
  121SOL     OW  543   1.848   2.651   2.705  0.2959  0.2289 -0.1585
  121SOL    HW1  544   1.871   2.588   2.779  1.4523 -0.1778 -0.8236
  121SOL    HW2  545   1.877   2.743   2.730  0.0321  0.2200  0.1830
  122SOL     OW  546   0.727   1.583   0.790 -0.1105  0.1974  0.1208
  122SOL    HW1  547   0.698   1.490   0.770 -0.8251  0.6744 -1.1999
  122SOL    HW2  548   0.791   1.582   0.867  0.8689 -1.5172 -0.6569
  123SOL     OW  549   1.024   2.486   3.459  0.4841 -0.1885 -0.4042
  123SOL    HW1  550   1.014   2.466   3.362 -1.0234  0.7336 -0.4752
  123SOL    HW2  551   0.985   2.577   3.478  0.0952 -0.6488  1.1627
  124SOL     OW  552   0.832   2.141   1.807  0.2903  0.3481  0.6403
  124SOL    HW1  553   0.831   2.091   1.720  0.8189 -0.3060  0.9950
  124SOL    HW2  554   0.831   2.239   1.789 -1.9448  0.2544 -0.0728
  125SOL     OW  555   1.888   2.652   2.234  0.7391  0.1736 -0.2669
  125SOL    HW1  556   1.874   2.570   2.178  1.0162 -0.7198  0.9093
  125SOL    HW2  557   1.851   2.635   2.326  2.0074  0.8610  0.3962
  126SOL     OW  558   3.105   2.526   0.142 -0.3584 -0.3973 -0.0097
  126SOL    HW1  559   3.068   2.538   0.234  0.0947 -1.4784  0.3242
  126SOL    HW2  560   3.047   2.576   0.077 -0.1472  1.1787  0.9504
  127SOL     OW  561   2.954   0.010   1.254 -0.5134 -0.0108  0.6797
  127SOL    HW1  562   2.890  -0.006   1.179 -1.6876  2.4202  1.0828
  127SOL    HW2  563   2.990  -0.078   1.286 -1.4489 -1.2319 -1.4242
  128SOL     OW  564   1.551   1.072   1.911  0.7132 -0.5434 -0.4705
  128SOL    HW1  565   1.452   1.083   1.925  0.8450  0.1036  0.0040
  128SOL    HW2  566   1.595   1.060   2.000  1.7052  4.6627  0.0818
  129SOL     OW  567   1.314   2.118   0.881 -0.3417 -0.4394 -0.5644
  129SOL    HW1  568   1.309   2.132   0.782 -0.2652  0.1074 -0.4944
  129SOL    HW2  569   1.300   2.206   0.927  0.2941 -0.5722 -0.1049
  130SOL     OW  570   2.307   2.634   3.594  0.0729 -0.0027  0.5490
  130SOL    HW1  571   2.376   2.569   3.563  0.6219  1.2685 -1.0164
  130SOL    HW2  572   2.223   2.620   3.542  0.4158  0.9489 -0.2994
  131SOL     OW  573   1.993   2.568   3.185 -0.3141 -0.4060  0.5895
  131SOL    HW1  574   1.900   2.535   3.202 -0.8243  0.5026 -0.3720
  131SOL    HW2  575   2.057   2.515   3.241 -1.5865  0.2997  2.8223
  132SOL     OW  576   3.399   1.437   1.862 -0.4648 -0.1775 -0.1338
  132SOL    HW1  577   3.462   1.429   1.940  0.4431 -0.3464 -0.8710
  132SOL    HW2  578   3.357   1.348   1.844  0.8467 -0.6278 -1.0769
  133SOL     OW  579   0.073   2.512   3.359  0.0764  0.6191 -0.1521
  133SOL    HW1  580   0.100   2.606   3.377 -2.1727  1.3720 -0.4522
  133SOL    HW2  581   0.083   2.493   3.262 -0.6620  0.9819 -0.3066
  134SOL     OW  582   2.594   3.215   0.788  0.1091  0.1855  0.3137
  134SOL    HW1  583   2.561   3.212   0.694 -0.5835 -1.5000  0.5778
  134SOL    HW2  584   2.547   3.288   0.837 -0.2340  0.4435 -0.3901
  135SOL     OW  585   2.998   0.470   1.053 -0.1635 -0.3335  0.3193
  135SOL    HW1  586   2.962   0.388   1.096  0.4404 -1.1586 -0.6916
  135SOL    HW2  587   3.098   0.461   1.042 -0.2437 -0.0165 -0.9035
  136SOL     OW  588   0.756   2.373   3.424 -0.2715 -0.5279  0.0242
  136SOL    HW1  589   0.707   2.451   3.385  1.7277 -0.4655 -2.6012
  136SOL    HW2  590   0.839   2.406   3.468  0.1432 -1.0903 -0.3267
  137SOL     OW  591   2.341   0.484   0.798 -0.1739 -0.7472  0.1400
  137SOL    HW1  592   2.378   0.575   0.782  1.0936 -0.9883  1.5227
  137SOL    HW2  593   2.374   0.422   0.726 -1.4575 -0.0431 -1.0961
  138SOL     OW  594   1.486   2.371   2.997 -0.0327  0.0252 -0.4882
  138SOL    HW1  595   1.517   2.298   3.059  0.5194 -0.4371 -1.2994
  138SOL    HW2  596   1.560   2.438   2.986 -1.2380  1.9019  1.9423
  139SOL     OW  597   3.372   1.494   2.148  0.4643  0.3763 -0.0064
  139SOL    HW1  598   3.403   1.480   2.242  2.5112  2.2699 -0.3241
  139SOL    HW2  599   3.367   1.592   2.129 -1.1142  0.0567 -1.5303
  140SOL     OW  600   2.753   0.205   2.885 -0.3831 -0.3412 -0.1626
  140SOL    HW1  601   2.784   0.248   2.970  2.5091 -0.7498 -0.8810
  140SOL    HW2  602   2.656   0.225   2.871 -0.7703  0.3773  2.8042
  141SOL     OW  603   2.483   0.306   0.610 -0.6651 -0.3664 -0.4114
  141SOL    HW1  604   2.396   0.328   0.566  0.3628  1.9689 -1.4501
  141SOL    HW2  605   2.556   0.306   0.542  0.0664 -3.6581  0.1908
  142SOL     OW  606   3.177   1.699   1.622  0.9294 -0.0764 -0.0414
  142SOL    HW1  607   3.236   1.622   1.597  0.0604 -1.3274  1.5977
  142SOL    HW2  608   3.178   1.711   1.721 -0.6340  0.6324 -0.0816
  143SOL     OW  609   0.753   3.132   2.952  0.3740  0.2511  0.4860
  143SOL    HW1  610   0.700   3.217   2.954 -1.1141 -0.6407  1.0777
  143SOL    HW2  611   0.759   3.100   2.857 -1.1013 -0.1493  0.4908
  144SOL     OW  612   2.515   2.988   2.194  0.0197 -0.1772  0.1173
  144SOL    HW1  613   2.457   3.038   2.258  0.7793  0.3535  0.4030
  144SOL    HW2  614   2.478   2.896   2.182 -0.7116  0.0526  0.5174
  145SOL     OW  615   1.707   2.870   0.170 -0.6161  0.8541  0.5182
  145SOL    HW1  616   1.705   2.791   0.230  0.8617  0.1317 -0.3185
  145SOL    HW2  617   1.678   2.842   0.078  0.6224  1.0910  0.0411
  146SOL     OW  618   1.665   0.178   0.019  0.2687 -0.4784 -0.1408
  146SOL    HW1  619   1.625   0.150   0.107 -1.4126  2.3894  0.1378
  146SOL    HW2  620   1.593   0.215  -0.039  2.0319  2.1879 -0.8104
  147SOL     OW  621   0.233   3.227   2.570  0.0767  0.8504 -0.2161
  147SOL    HW1  622   0.185   3.312   2.592  1.8785  2.0140 -0.5562
  147SOL    HW2  623   0.167   3.152   2.567 -1.1624  1.5763  3.3536
  148SOL     OW  624   0.737   2.475   0.289  0.4457 -0.0937 -0.1017
  148SOL    HW1  625   0.826   2.448   0.327  0.2010  0.0535  0.6005
  148SOL    HW2  626   0.691   2.535   0.354 -0.5884 -0.9547 -0.0075
  149SOL     OW  627   2.108   0.767   1.515  0.5252 -0.6490 -0.2897
  149SOL    HW1  628   2.084   0.804   1.426  0.4012  3.2894  1.1640
  149SOL    HW2  629   2.031   0.714   1.550 -0.0291 -0.9082 -1.8294
  150SOL     OW  630   1.738   3.511   1.407  0.1098  0.3230  0.2664
  150SOL    HW1  631   1.663   3.472   1.356 -0.9969  0.9237  1.3728
  150SOL    HW2  632   1.824   3.472   1.375 -0.7435 -1.1367 -0.3259
  151SOL     OW  633   1.859   3.161   1.765  0.4349 -0.6414 -0.3757
  151SOL    HW1  634   1.841   3.089   1.697 -2.3498 -1.0447  0.6454
  151SOL    HW2  635   1.821   3.133   1.853 -0.9116  2.1318  0.0313
  152SOL     OW  636   3.550   2.641   1.522 -0.0842  0.7458 -0.1321
  152SOL    HW1  637   3.622   2.579   1.555 -0.0351  0.8950  0.0433
  152SOL    HW2  638   3.461   2.601   1.542 -0.0519  0.6488 -0.1781
  153SOL     OW  639   1.115   1.099   0.794 -0.0113  0.7425 -0.5027
  153SOL    HW1  640   1.204   1.123   0.755  0.7702  0.0782  0.8048
  153SOL    HW2  641   1.107   1.000   0.799  0.2021  0.7787  1.5336
  154SOL     OW  642   2.555   1.134   1.299  0.1033  0.4661 -0.4476
  154SOL    HW1  643   2.480   1.177   1.248 -1.4635 -1.4177  0.1819
  154SOL    HW2  644   2.595   1.061   1.244  2.4006  2.2055 -1.2873
  155SOL     OW  645   2.214   1.562   1.137  0.1902 -0.4738  0.2389
  155SOL    HW1  646   2.206   1.534   1.233  0.0146  2.9559  1.3695
  155SOL    HW2  647   2.290   1.627   1.128 -0.8973  0.6434 -1.5757
  156SOL     OW  648   2.243   0.409   3.314  0.0874  1.1075 -0.3221
  156SOL    HW1  649   2.342   0.407   3.329  0.2003  1.2551 -0.9934
  156SOL    HW2  650   2.196   0.405   3.402  0.6943  1.1705  0.0102
  157SOL     OW  651   2.254   2.537   1.395  0.1104  0.3829 -0.1497
  157SOL    HW1  652   2.305   2.498   1.472  0.5416 -0.4263 -0.8298
  157SOL    HW2  653   2.167   2.487   1.386 -0.7764  1.6589  0.9133
  158SOL     OW  654   0.580   2.377   0.055 -0.0689 -0.1619  0.0161
  158SOL    HW1  655   0.649   2.364  -0.017 -2.0770 -3.1452 -1.5817
  158SOL    HW2  656   0.490   2.385   0.013 -1.1115 -0.0436  2.1675
  159SOL     OW  657   0.363   1.695   1.982 -0.5642  0.1143 -0.1959
  159SOL    HW1  658   0.381   1.599   1.958 -0.9195 -0.5787  2.1230
  159SOL    HW2  659   0.428   1.724   2.052 -2.2193  0.6905  1.1519
  160SOL     OW  660   2.482   3.412   1.400 -0.3819  0.1174  0.2698
  160SOL    HW1  661   2.466   3.493   1.456  1.7879  1.8047 -1.3884
  160SOL    HW2  662   2.395   3.383   1.359 -1.5391  0.3615  2.4039
  161SOL     OW  663   2.443   2.021   2.946  0.1980 -0.2688 -0.0447
  161SOL    HW1  664   2.514   2.083   2.911 -1.0929  1.4992  0.3261
  161SOL    HW2  665   2.482   1.963   3.017  0.9460  1.7254  1.2463
  162SOL     OW  666   1.110   0.080   1.271 -0.2140  0.1573 -0.0142
  162SOL    HW1  667   1.036   0.140   1.303  0.4090  1.2116 -0.5107
  162SOL    HW2  668   1.122   0.007   1.338 -1.6505  0.0015  0.1174
  163SOL     OW  669   3.278   0.720   1.755  0.2463 -0.2818 -0.1065
  163SOL    HW1  670   3.303   0.623   1.764  1.5734 -0.0898 -1.3487
  163SOL    HW2  671   3.201   0.728   1.693 -1.2015 -0.6611  1.5545
  164SOL     OW  672   2.346   0.725   2.435  0.5550  0.2204  0.3970
  164SOL    HW1  673   2.430   0.672   2.438 -0.7154 -1.8924  1.1694
  164SOL    HW2  674   2.327   0.752   2.340  1.6106 -0.0828  0.0951
  165SOL     OW  675   3.055   3.592   2.988 -0.3574 -0.1173 -0.2003
  165SOL    HW1  676   3.113   3.560   3.063  0.6039 -0.8302 -1.2083
  165SOL    HW2  677   2.970   3.538   2.987  0.3833 -1.3016 -0.6662
  166SOL     OW  678   2.529   2.182   1.859 -0.2207  0.5545 -0.4119
  166SOL    HW1  679   2.581   2.141   1.783 -0.2463 -0.1369 -0.0613
  166SOL    HW2  680   2.469   2.113   1.899  0.9559  0.4508  1.2810
  167SOL     OW  681   2.130   1.461   0.887  0.0946 -0.0090 -0.1340
  167SOL    HW1  682   2.155   1.365   0.885 -4.4933 -1.4702  1.2349
  167SOL    HW2  683   2.137   1.496   0.980 -1.0715  0.0653 -0.0639
  168SOL     OW  684   0.815   0.176   2.418  0.0254  0.6432  0.1101
  168SOL    HW1  685   0.848   0.082   2.416 -0.0814  0.6058 -2.1936
  168SOL    HW2  686   0.884   0.234   2.461  0.6974 -0.2708  0.2961
  169SOL     OW  687   0.623   2.010   0.379  0.5595  0.0658  0.0483
  169SOL    HW1  688   0.642   2.004   0.477  3.3260 -1.2155 -0.4912
  169SOL    HW2  689   0.556   1.941   0.355  0.9553 -0.6068  0.8115
  170SOL     OW  690   1.063   1.990   1.854 -0.0932 -0.0682  0.0597
  170SOL    HW1  691   0.977   2.042   1.849 -1.2598 -2.0277 -2.9355
  170SOL    HW2  692   1.074   1.955   1.947 -1.8109  1.3299  0.8613
  171SOL     OW  693   0.957   2.935   0.212  0.2467  0.3619 -0.4795
  171SOL    HW1  694   1.027   2.880   0.165  0.3668  0.3509 -0.2909
  171SOL    HW2  695   0.991   2.959   0.303 -0.0795  0.1904 -0.3147
  172SOL     OW  696   3.008   1.287   3.050 -0.0562 -0.2621 -0.0798
  172SOL    HW1  697   2.958   1.258   3.132 -0.0198 -1.2453 -0.3893
  172SOL    HW2  698   3.100   1.316   3.077 -0.3036  0.1771  0.3148
  173SOL     OW  699   0.025   0.469   1.157  0.3492 -0.0376 -0.0064
  173SOL    HW1  700  -0.025   0.394   1.113  2.2591 -0.2939 -1.8920
  173SOL    HW2  701   0.109   0.434   1.198 -0.2570  0.6069  1.8888
  174SOL     OW  702   1.881   0.266   3.450 -0.2040  0.1170 -0.6499
  174SOL    HW1  703   1.895   0.213   3.367  0.2954  0.4680 -0.7940
  174SOL    HW2  704   1.826   0.213   3.514  0.8651 -0.8531 -0.5109
  175SOL     OW  705   2.540   3.412   1.925  0.2126 -0.2932 -0.1541
  175SOL    HW1  706   2.558   3.317   1.953 -0.6615 -0.6916 -0.8637
  175SOL    HW2  707   2.587   3.430   1.839  1.9780  0.5663  0.9488
  176SOL     OW  708   3.019   0.399   1.441 -0.3096 -0.3296 -0.0063
  176SOL    HW1  709   2.972   0.479   1.479  0.8626 -0.0891  0.9916
  176SOL    HW2  710   2.991   0.317   1.491  0.4069 -0.1694  0.6682
  177SOL     OW  711   0.464   2.640   2.849  0.5716 -0.9847  0.5023
  177SOL    HW1  712   0.549   2.684   2.876  0.8800 -1.7346  0.7497
  177SOL    HW2  713   0.430   2.584   2.924 -1.1580  0.7978  1.1433
  178SOL     OW  714   0.600   0.533   0.798 -0.3859  0.5275 -0.0556
  178SOL    HW1  715   0.694   0.509   0.820 -0.2310 -1.7003 -2.6733
  178SOL    HW2  716   0.598   0.620   0.749  0.5187 -0.1932 -1.3975
  179SOL     OW  717   0.595   0.162   2.263 -0.2669  0.1737  0.0439
  179SOL    HW1  718   0.683   0.152   2.309 -1.7211 -0.9209  2.8121
  179SOL    HW2  719   0.608   0.152   2.164  3.1607  3.6185 -0.0795
  180SOL     OW  720   2.148   0.746   0.114  0.8306 -0.3033 -0.3998
  180SOL    HW1  721   2.196   0.829   0.139  1.1686 -0.7298  0.4119
  180SOL    HW2  722   2.092   0.763   0.033  0.5353  0.8345  0.0231
  181SOL     OW  723   2.133   1.729   0.339  0.2721  0.2673 -0.0296
  181SOL    HW1  724   2.038   1.761   0.333  0.0311 -0.4862 -0.3696
  181SOL    HW2  725   2.185   1.791   0.398 -0.2962  1.0001 -0.2830
  182SOL     OW  726   2.287   2.995   3.028 -0.1255 -0.4050  0.1466
  182SOL    HW1  727   2.307   3.087   2.994  0.7031  0.0487  1.7310
  182SOL    HW2  728   2.276   2.933   2.951  3.6532  0.1375 -1.0529
  183SOL     OW  729   2.559   2.324   1.377  0.4481  0.2876 -0.1176
  183SOL    HW1  730   2.656   2.315   1.400  0.9834 -3.1650 -2.8983
  183SOL    HW2  731   2.548   2.398   1.311  1.2560  0.3772 -0.1718
  184SOL     OW  732   0.668   1.344   0.699 -0.3354 -0.1236 -0.9100
  184SOL    HW1  733   0.629   1.253   0.688 -2.0394  0.3566  0.6586
  184SOL    HW2  734   0.766   1.340   0.684 -0.3037 -2.3204 -0.3854
  185SOL     OW  735   0.278   1.122   0.640  0.4588  0.2153 -0.4190
  185SOL    HW1  736   0.207   1.181   0.680  0.2691 -1.0139  1.1363
  185SOL    HW2  737   0.290   1.147   0.544 -1.2746  1.2157 -0.4231
  186SOL     OW  738   0.243   0.568   3.481 -0.1451 -0.4059  0.3463
  186SOL    HW1  739   0.263   0.653   3.433  1.4588 -0.3992  0.9741
  186SOL    HW2  740   0.203   0.589   3.570 -2.5265 -0.4094 -0.6395
  187SOL     OW  741   0.100   0.844   2.490 -0.1288 -0.6495  0.2588
  187SOL    HW1  742   0.183   0.890   2.457  0.4329 -1.3226  0.6982
  187SOL    HW2  743   0.042   0.820   2.412 -0.2888  0.5307  0.0071
  188SOL     OW  744   1.684   2.629   0.309 -0.3392  0.1158 -0.3679
  188SOL    HW1  745   1.683   2.566   0.231  0.8933 -0.2292 -0.1353
  188SOL    HW2  746   1.647   2.584   0.389  1.8767 -0.8916  0.1709
  189SOL     OW  747   3.257   2.728   0.629 -0.1733  0.2344 -0.3630
  189SOL    HW1  748   3.350   2.736   0.664  0.0170  1.3580 -1.0584
  189SOL    HW2  749   3.195   2.706   0.704  0.7557 -1.3914 -0.0404
  190SOL     OW  750   0.304   2.221   2.844 -0.3930 -0.0960  0.0459
  190SOL    HW1  751   0.258   2.310   2.836  0.2757  0.5699  2.6649
  190SOL    HW2  752   0.402   2.236   2.860 -0.4492 -1.2227  1.6620
  191SOL     OW  753   1.790   2.115   2.502  0.4352  0.1028  0.0901
  191SOL    HW1  754   1.844   2.178   2.446  1.0002 -0.5076 -0.0635
  191SOL    HW2  755   1.716   2.077   2.446 -0.3702  1.1675  0.3824
  192SOL     OW  756   1.200   1.242   1.399 -0.3722 -0.0852  0.4124
  192SOL    HW1  757   1.140   1.207   1.471 -0.0083 -2.4357 -0.3207
  192SOL    HW2  758   1.227   1.166   1.339 -0.1147  1.6471 -1.8186
  193SOL     OW  759   1.262   0.979   0.484  0.0174  0.0817 -0.0257
  193SOL    HW1  760   1.218   0.900   0.441 -0.4489  2.3500 -4.2242
  193SOL    HW2  761   1.360   0.962   0.490 -0.1568 -1.0705 -0.1514
  194SOL     OW  762   0.986   3.498   3.490  0.3182  0.3824  0.1337
  194SOL    HW1  763   0.905   3.548   3.520  1.2687  0.9966  1.8663
  194SOL    HW2  764   0.987   3.408   3.533 -0.4501 -0.4539 -1.5188
  195SOL     OW  765   1.178   3.088   2.393  0.1503 -0.1931  0.4236
  195SOL    HW1  766   1.182   3.106   2.295  1.7110  0.2931  0.5590
  195SOL    HW2  767   1.103   3.024   2.411 -0.1802 -0.2670 -1.0636
  196SOL     OW  768   2.710   2.155   3.419 -0.6517  0.3364 -0.7011
  196SOL    HW1  769   2.640   2.227   3.422 -0.6138  0.3525  1.5743
  196SOL    HW2  770   2.785   2.180   3.479 -0.4519 -1.4094 -0.1681
  197SOL     OW  771   3.341   2.290   3.199  0.0751  0.2135  0.8278
  197SOL    HW1  772   3.361   2.386   3.214  0.7677  0.3454 -0.7254
  197SOL    HW2  773   3.375   2.236   3.276 -0.1914  1.1778  1.6376
  198SOL     OW  774   2.259   0.571   3.107  0.1959  0.1542 -0.1188
  198SOL    HW1  775   2.264   0.666   3.138  0.0040 -0.3306  1.5324
  198SOL    HW2  776   2.244   0.512   3.187  0.4129 -1.2700 -1.0994
  199SOL     OW  777   1.941   0.150   2.098  0.6654  0.4030  0.5353
  199SOL    HW1  778   2.002   0.072   2.081 -0.4847 -0.6767  1.2375
  199SOL    HW2  779   1.978   0.230   2.051  1.5832 -0.6756 -0.6891
  200SOL     OW  780   2.306   2.053   3.331 -0.1331  0.4469  0.1773
  200SOL    HW1  781   2.239   1.980   3.318 -0.7031  1.1254 -0.7977
  200SOL    HW2  782   2.329   2.092   3.242  1.8861 -0.0463  0.4364
  201SOL     OW  783   3.341   0.199   0.649  0.4685 -0.0180 -0.7568
  201SOL    HW1  784   3.268   0.152   0.598  0.2312 -0.6686  0.1713
  201SOL    HW2  785   3.302   0.237   0.733  1.3185 -0.9391  0.0763
  202SOL     OW  786   1.087   1.901   3.568 -0.2304  0.2113 -0.2192
  202SOL    HW1  787   1.135   1.902   3.656  0.9832 -0.4362 -0.8509
  202SOL    HW2  788   1.017   1.830   3.571 -0.7077  0.6948  0.4717
  203SOL     OW  789   1.475   2.931   0.799 -0.2832 -0.4403 -0.1840
  203SOL    HW1  790   1.388   2.890   0.770 -1.5271  0.9473  1.3974
  203SOL    HW2  791   1.540   2.859   0.821 -1.3281 -1.5244 -0.5485
  204SOL     OW  792   0.424   2.127   2.189  0.0105 -0.0929 -1.3491
  204SOL    HW1  793   0.504   2.129   2.128  0.5702 -0.1510 -0.6199
  204SOL    HW2  794   0.385   2.219   2.193  0.7235  0.1936 -0.8177
  205SOL     OW  795   0.481   0.914   2.612  0.3394  0.7041  0.3222
  205SOL    HW1  796   0.514   0.820   2.622 -1.3529 -0.0165 -0.4848
  205SOL    HW2  797   0.559   0.974   2.592  1.1855 -0.9230 -1.6296
  206SOL     OW  798   3.111   3.578   2.107 -0.5509  0.5654  0.1781
  206SOL    HW1  799   3.132   3.676   2.112  1.4624  0.1895  0.1628
  206SOL    HW2  800   3.029   3.560   2.161 -0.2006  2.0734  1.3220
  207SOL     OW  801   2.246   2.161   1.645 -0.4226 -0.2531  0.0716
  207SOL    HW1  802   2.231   2.260   1.644 -0.7352 -0.1749  2.8601
  207SOL    HW2  803   2.324   2.139   1.587 -0.2281  1.6490 -0.4659
  208SOL     OW  804   1.073   2.168   3.520 -0.3631  0.2206  0.0821
  208SOL    HW1  805   1.012   2.172   3.441 -1.7286 -0.8272  1.0291
  208SOL    HW2  806   1.096   2.073   3.539 -0.3888  0.4127  1.1720
  209SOL     OW  807   2.528   0.826   1.367  0.5549  0.4512  0.1124
  209SOL    HW1  808   2.497   0.868   1.282  1.3009  0.8703  0.0342
  209SOL    HW2  809   2.546   0.898   1.434 -1.7854  0.0375  1.2611
  210SOL     OW  810   0.346   0.022   0.077 -0.1014 -0.0079 -1.0679
  210SOL    HW1  811   0.421   0.068   0.124 -1.8208  0.7311  1.1311
  210SOL    HW2  812   0.344  -0.074   0.105  0.2418 -0.1346 -1.4590
  211SOL     OW  813   2.314   2.873   1.843 -0.3843 -0.5751  0.1937
  211SOL    HW1  814   2.227   2.832   1.817 -0.0786 -0.4632 -1.0477
  211SOL    HW2  815   2.350   2.927   1.767  0.5461 -0.2309  0.8514
  212SOL     OW  816   0.805   0.960   1.837 -0.5761  0.2429 -0.3374
  212SOL    HW1  817   0.720   0.996   1.800 -0.9636 -0.4525 -0.1415
  212SOL    HW2  818   0.873   1.034   1.842 -1.9468  1.4256  1.9822
  213SOL     OW  819   2.589   3.312   2.989  0.0443  0.2299  0.9269
  213SOL    HW1  820   2.622   3.317   2.895  1.1470  0.4245  1.3158
  213SOL    HW2  821   2.615   3.396   3.038  0.7012 -0.4537  1.7830
  214SOL     OW  822   3.322   2.186   2.353 -0.4055  0.3449 -0.1160
  214SOL    HW1  823   3.307   2.110   2.415  1.4090 -0.5824 -0.7502
  214SOL    HW2  824   3.291   2.161   2.261  0.2031  0.3613 -0.3291
  215SOL     OW  825   1.267   2.777   0.192 -0.0537  0.1165 -0.0134
  215SOL    HW1  826   1.291   2.682   0.173 -0.6714 -0.3506  1.3811
  215SOL    HW2  827   1.215   2.814   0.115 -1.5498 -1.3457  0.2308
  216SOL     OW  828   0.590   0.115   1.821  0.0046  0.1651  0.2655
  216SOL    HW1  829   0.544   0.179   1.882  0.2711 -0.5021  1.1899
  216SOL    HW2  830   0.522   0.076   1.758 -0.4698  0.1030  0.8066
  217SOL     OW  831   0.357   0.418   0.268  0.0091 -0.2529 -0.4767
  217SOL    HW1  832   0.398   0.334   0.304  0.5127  0.3045  0.2650
  217SOL    HW2  833   0.264   0.428   0.305 -0.9733 -1.6734 -2.3943
  218SOL     OW  834   3.486   0.863   3.475  0.1889  0.7706  0.3419
  218SOL    HW1  835   3.509   0.782   3.530  0.1245  1.1015  0.8660
  218SOL    HW2  836   3.448   0.933   3.535  1.9616  1.8988  0.1954
  219SOL     OW  837   0.633   3.370   3.003  0.0037  0.0612 -0.0441
  219SOL    HW1  838   0.621   3.317   3.087 -0.4824 -0.1395 -0.2362
  219SOL    HW2  839   0.554   3.429   2.989 -0.3592 -0.5971 -0.8451
  220SOL     OW  840   2.994   1.909   2.427  0.0099 -0.3709 -0.5494
  220SOL    HW1  841   3.037   1.887   2.339 -0.1040  0.1766 -0.7431
  220SOL    HW2  842   2.993   2.008   2.439  1.3338 -0.4749  0.7177
  221SOL     OW  843   0.305   2.092   2.591 -0.3441 -0.5106  0.1446
  221SOL    HW1  844   0.367   2.146   2.535 -0.0001 -1.3291 -0.2907
  221SOL    HW2  845   0.302   2.130   2.684  0.3954 -0.1489  0.0265
  222SOL     OW  846   0.691   2.602   1.017  0.5442  0.4924  0.1403
  222SOL    HW1  847   0.740   2.639   1.095 -0.2469  0.4368  0.6845
  222SOL    HW2  848   0.592   2.615   1.031  0.2287 -1.6828  0.3201
  223SOL     OW  849   2.307   0.099   2.160  0.5466 -0.1881 -0.4167
  223SOL    HW1  850   2.259   0.172   2.208  1.9767 -0.2453  1.2027
  223SOL    HW2  851   2.253   0.070   2.081 -1.5815  0.4180  0.7349
  224SOL     OW  852   0.553   1.545   3.290  0.1890 -0.2654 -0.3634
  224SOL    HW1  853   0.574   1.456   3.331 -0.0721  0.5413  1.6628
  224SOL    HW2  854   0.462   1.574   3.321  0.0274  0.4525 -1.4792
  225SOL     OW  855   0.603   2.553   0.555 -0.3071 -0.3863 -0.1822
  225SOL    HW1  856   0.555   2.471   0.524  0.7667 -0.2278 -2.4653
  225SOL    HW2  857   0.559   2.634   0.518  0.1457 -0.0865 -0.0806
  226SOL     OW  858   2.864   0.318   3.383 -0.2449  0.2087  0.8732
  226SOL    HW1  859   2.834   0.227   3.410 -1.0028  0.2152  0.0993
  226SOL    HW2  860   2.930   0.310   3.308 -0.1308  0.2929  0.9636
  227SOL     OW  861   3.121   3.296   1.631 -0.6882 -0.5724 -0.2423
  227SOL    HW1  862   3.201   3.342   1.592 -0.0481  1.3130  3.0073
  227SOL    HW2  863   3.147   3.203   1.659 -0.6247 -1.1905 -2.1538
  228SOL     OW  864   0.501   3.503   0.844 -0.6493 -0.0792 -0.0305
  228SOL    HW1  865   0.411   3.485   0.884 -0.6633  0.7518  0.3428
  228SOL    HW2  866   0.565   3.524   0.917 -1.2191  3.8839 -0.4248
  229SOL     OW  867   1.506   0.822   0.920 -0.3788  0.1024 -0.1992
  229SOL    HW1  868   1.422   0.808   0.866 -0.6038 -1.3192  0.4810
  229SOL    HW2  869   1.549   0.734   0.938  0.5420  0.6945  0.6239
  230SOL     OW  870   0.611   2.206   1.440  0.2704  0.1997  0.3062
  230SOL    HW1  871   0.602   2.117   1.485 -1.3124 -0.4639 -1.2068
  230SOL    HW2  872   0.653   2.194   1.351 -3.2483  0.2761 -1.5519
  231SOL     OW  873   2.259   1.853   1.782 -0.2117  0.0990  0.0420
  231SOL    HW1  874   2.179   1.894   1.737  0.2132  0.4843 -0.3695
  231SOL    HW2  875   2.284   1.908   1.862  0.1075  0.4171 -0.2730
  232SOL     OW  876   1.612   0.694   3.170  0.1468 -0.0752  0.3339
  232SOL    HW1  877   1.681   0.720   3.103  0.3398 -0.2332  0.4680
  232SOL    HW2  878   1.563   0.613   3.138 -1.4913  1.2925 -0.7996
  233SOL     OW  879   1.667   3.473   2.414 -0.0437 -0.5607 -0.3451
  233SOL    HW1  880   1.696   3.534   2.340  1.2303  0.1242  0.6724
  233SOL    HW2  881   1.582   3.507   2.453  1.3110  1.4463  1.0884
  234SOL     OW  882   1.471   0.073   2.958 -0.7661 -0.1826  0.1879
  234SOL    HW1  883   1.373   0.081   2.976 -0.5396  0.8651  1.0811
  234SOL    HW2  884   1.521   0.129   3.024  0.4286 -0.4970 -0.4207
  235SOL     OW  885   0.189   0.523   2.301 -0.1782 -0.7170 -0.3769
  235SOL    HW1  886   0.251   0.598   2.280 -0.8808 -0.4669 -1.6260
  235SOL    HW2  887   0.216   0.482   2.388 -0.6227  1.9065  1.1175
  236SOL     OW  888   2.527   0.268   1.849 -0.2045 -0.3219 -0.5498
  236SOL    HW1  889   2.480   0.230   1.770  0.2750 -0.2546 -0.8735
  236SOL    HW2  890   2.462   0.318   1.906 -1.4879 -3.8542  1.3618
  237SOL     OW  891   0.593   2.405   2.053  0.1532  0.3053 -0.0732
  237SOL    HW1  892   0.525   2.464   2.010 -1.2206 -1.1435  0.0112
  237SOL    HW2  893   0.590   2.418   2.152 -0.2103  0.0625 -0.0482
  238SOL     OW  894   0.139   3.582   0.844 -0.4285 -0.5707  0.3818
  238SOL    HW1  895   0.140   3.665   0.901 -0.5592  0.6077 -1.2401
  238SOL    HW2  896   0.051   3.576   0.797  0.5880  0.0210 -1.7441
  239SOL     OW  897   0.862   1.153   2.122 -0.0104 -0.2141 -0.4670
  239SOL    HW1  898   0.771   1.176   2.090  0.3198  0.5517 -0.8738
  239SOL    HW2  899   0.870   1.053   2.131 -0.2302 -0.4390 -2.4283
  240SOL     OW  900   1.436   1.042   1.641 -0.5169  0.0530 -0.5957
  240SOL    HW1  901   1.457   1.039   1.739 -0.8961  0.3990 -0.5030
  240SOL    HW2  902   1.467   0.957   1.598 -1.9436 -0.8624  0.1345
  241SOL     OW  903   3.022   1.893   2.099  0.5014  0.7467 -0.3311
  241SOL    HW1  904   3.021   1.793   2.103 -0.6746  0.7178 -0.9223
  241SOL    HW2  905   2.933   1.926   2.066  0.4002  2.0562  1.1467
  242SOL     OW  906   0.998   1.178   2.389 -0.0191 -0.0837 -0.2058
  242SOL    HW1  907   0.965   1.190   2.295 -0.9089 -1.8066 -0.1729
  242SOL    HW2  908   0.991   1.081   2.413  0.0802  0.3444  1.6876
  243SOL     OW  909   2.184   0.168   3.191  0.3382  0.2373 -0.0414
  243SOL    HW1  910   2.213   0.260   3.219  1.5764  0.1165 -0.8464
  243SOL    HW2  911   2.215   0.102   3.260  0.7709  0.2586 -0.2166
  244SOL     OW  912   0.380   2.962   1.074  0.0100  0.8759  0.2400
  244SOL    HW1  913   0.357   3.008   1.160  0.8496  0.3356  0.7685
  244SOL    HW2  914   0.461   3.004   1.035  0.2570  0.4278  0.2666
  245SOL     OW  915   2.559   2.046   0.145 -0.0377  0.1289  0.4244
  245SOL    HW1  916   2.529   2.141   0.136 -0.0848  0.2414  1.5591
  245SOL    HW2  917   2.577   2.008   0.055  0.3302  1.3293 -0.0221
  246SOL     OW  918   3.332   1.698   0.552  0.6882 -0.6663 -0.3616
  246SOL    HW1  919   3.419   1.650   0.566  1.3463  0.5507 -0.1385
  246SOL    HW2  920   3.338   1.756   0.472  0.2059 -0.2805 -0.1266
  247SOL     OW  921   0.629   0.230   0.067 -0.6634 -0.1811 -0.0272
  247SOL    HW1  922   0.626   0.299   0.139 -0.5198 -2.4729  2.2947
  247SOL    HW2  923   0.561   0.253  -0.003 -1.0009  1.9742  0.9245
  248SOL     OW  924   1.824   2.590   1.192 -0.6400  0.2381 -0.2035
  248SOL    HW1  925   1.859   2.517   1.133 -1.9578 -0.2050 -0.4626
  248SOL    HW2  926   1.840   2.678   1.147  0.3595  0.0777 -0.1930
  249SOL     OW  927   1.945   0.552   0.164  0.3465  0.3064  0.2933
  249SOL    HW1  928   1.971   0.473   0.219  0.7887  0.7036  0.6618
  249SOL    HW2  929   2.026   0.607   0.145 -0.1559  1.3510  1.1201
  250SOL     OW  930   0.495   1.135   0.827  0.5081  0.0772 -0.0442
  250SOL    HW1  931   0.435   1.142   0.747 -0.6126 -0.8224  0.6815
  250SOL    HW2  932   0.576   1.081   0.803  0.1222 -0.2900 -0.5368
  251SOL     OW  933   2.738   0.352   2.571  0.2020  0.1363  0.1298
  251SOL    HW1  934   2.639   0.344   2.580  0.3871 -1.3925  1.3028
  251SOL    HW2  935   2.770   0.429   2.625 -0.2544  0.1455  0.3912
  252SOL     OW  936   0.261   2.948   3.099  0.3338  0.0482  0.1697
  252SOL    HW1  937   0.194   2.877   3.122 -0.1962  0.2358 -0.7677
  252SOL    HW2  938   0.353   2.908   3.100  0.0050 -0.7739 -0.7731
  253SOL     OW  939   3.081   2.311   2.080  0.5193  0.2315  0.0511
  253SOL    HW1  940   3.137   2.248   2.027  0.2340  0.8278 -0.9778
  253SOL    HW2  941   3.014   2.354   2.020 -1.2186 -0.6181  1.2713
  254SOL     OW  942   3.187   1.650   1.895 -0.3158  0.0194 -0.9787
  254SOL    HW1  943   3.255   1.579   1.876  0.1068  0.3487 -0.7052
  254SOL    HW2  944   3.121   1.616   1.961  0.5250  0.2527  0.0011
  255SOL     OW  945   3.045   0.441   3.547 -0.3761 -0.1935 -0.2073
  255SOL    HW1  946   2.978   0.388   3.496 -0.1791 -0.0544 -0.6182
  255SOL    HW2  947   3.050   0.533   3.510  2.1104 -0.9818 -2.1622
  256SOL     OW  948   2.573   0.066   0.973  0.0383  0.3704  0.0229
  256SOL    HW1  949   2.628   0.123   0.913 -1.7205  0.1598 -1.9449
  256SOL    HW2  950   2.534   0.122   1.046 -2.4205  2.1010 -2.3844
  257SOL     OW  951   1.462   1.513   1.808 -0.2763  0.3604  0.4897
  257SOL    HW1  952   1.398   1.464   1.750 -0.3434 -0.2512  1.0644
  257SOL    HW2  953   1.533   1.450   1.840  0.9785  1.1512 -0.6162
  258SOL     OW  954   2.762   1.463   0.809  0.5389  0.2504 -0.5958
  258SOL    HW1  955   2.718   1.467   0.898  1.9059  0.3338  0.1035
  258SOL    HW2  956   2.772   1.556   0.773  1.2635  0.3445 -0.1711
  259SOL     OW  957   2.259   0.823   0.615 -0.2937 -0.5730 -0.1159
  259SOL    HW1  958   2.337   0.769   0.648 -0.1338  0.2009  0.7833
  259SOL    HW2  959   2.291   0.912   0.585 -0.5911 -0.8858 -1.4305
  260SOL     OW  960   0.549   1.893   1.590  0.4843 -0.6000  0.0378
  260SOL    HW1  961   0.641   1.921   1.563  0.7969 -1.6453 -0.0455
  260SOL    HW2  962   0.517   1.822   1.527 -0.8174  0.5003 -0.5835
  261SOL     OW  963   2.807   0.010   2.691  0.1587  0.5391  0.2384
  261SOL    HW1  964   2.797   0.074   2.768 -0.7030  0.9315 -0.1854
  261SOL    HW2  965   2.863   0.053   2.620 -2.3361  1.8579 -1.0764
  262SOL     OW  966   1.608   2.695   0.852 -0.0211 -0.7001  0.1850
  262SOL    HW1  967   1.701   2.687   0.889  0.2346 -1.0858 -0.5408
  262SOL    HW2  968   1.557   2.612   0.874  0.1253 -0.9219 -0.3023
  263SOL     OW  969   2.111   3.228   2.549  0.2943 -0.1168  0.2334
  263SOL    HW1  970   2.015   3.211   2.524 -0.6396  3.2441  0.9351
  263SOL    HW2  971   2.128   3.190   2.640 -1.0083  0.7527  0.8923
  264SOL     OW  972   0.277   1.590   1.063 -0.5977 -0.0487 -0.1944
  264SOL    HW1  973   0.371   1.622   1.054 -0.2713 -0.8095  0.3849
  264SOL    HW2  974   0.262   1.559   1.157 -1.7771  1.1370  0.0433
  265SOL     OW  975   2.596   3.021   1.233  0.1805  0.1576 -0.3462
  265SOL    HW1  976   2.539   2.983   1.161 -1.1793 -0.9731  1.2415
  265SOL    HW2  977   2.605   2.954   1.307 -0.1447  1.9534  1.4083
  266SOL     OW  978   2.830   1.143   1.017 -0.0870  0.4253 -0.1716
  266SOL    HW1  979   2.803   1.209   1.088  0.8671 -0.3274  0.9229
  266SOL    HW2  980   2.830   1.189   0.929  0.6796  1.9601  0.5827
  267SOL     OW  981   3.503   3.459   0.528 -0.1498  0.2196 -0.3767
  267SOL    HW1  982   3.435   3.406   0.579  0.6177 -1.0322 -0.6162
  267SOL    HW2  983   3.595   3.426   0.551  0.2551  0.2030 -1.9248
  268SOL     OW  984   3.245   3.450   0.316  0.3988 -0.0755 -0.6862
  268SOL    HW1  985   3.245   3.360   0.273 -2.5007  0.0332 -1.1358
  268SOL    HW2  986   3.249   3.521   0.246 -1.5335  0.0899 -0.6941
  269SOL     OW  987   2.336   3.225   1.059 -0.1327  0.3457 -0.3319
  269SOL    HW1  988   2.389   3.289   1.004  0.5621 -0.0503 -0.1361
  269SOL    HW2  989   2.314   3.266   1.147  2.7771 -0.6441  0.9747
  270SOL     OW  990   0.377   3.286   2.801  0.0993 -0.3354  0.1413
  270SOL    HW1  991   0.330   3.286   2.712 -0.1217  0.2080  0.2541
  270SOL    HW2  992   0.406   3.379   2.822 -0.5282 -0.3184  0.9908
  271SOL     OW  993   3.348   2.902   1.958  0.2045 -0.4152 -0.7006
  271SOL    HW1  994   3.313   2.843   1.886 -1.2324  1.2579 -1.4248
  271SOL    HW2  995   3.391   2.845   2.028 -0.2225 -2.2302 -1.8419
  272SOL     OW  996   1.072   0.682   2.124  0.8933  0.2475  0.2157
  272SOL    HW1  997   1.028   0.609   2.178  0.6011  0.8651  0.8235
  272SOL    HW2  998   1.004   0.753   2.104  1.4926  0.9821  0.7509
  273SOL     OW  999   0.478   1.700   0.731  0.2095 -0.2256 -0.2207
  273SOL    HW1 1000   0.558   1.666   0.779  0.0896 -0.0057  0.1385
  273SOL    HW2 1001   0.409   1.629   0.727  0.0045 -0.0644  0.4247
  274SOL     OW 1002   1.313   2.156   2.327 -0.1156  0.0462 -0.1199
  274SOL    HW1 1003   1.255   2.091   2.377 -0.0716 -0.0162 -0.1501
  274SOL    HW2 1004   1.277   2.168   2.235 -0.1556  0.1072 -0.0968
  275SOL     OW 1005   1.887   1.145   3.047 -0.2220  0.2219  0.2299
  275SOL    HW1 1006   1.963   1.207   3.028  1.8121 -1.7467  1.4323
  275SOL    HW2 1007   1.805   1.198   3.068  1.0976  2.4360  0.0151
  276SOL     OW 1008   1.796   3.074   2.054  0.7189 -0.3495  0.2426
  276SOL    HW1 1009   1.874   3.012   2.063 -0.5766 -1.9900  0.7045
  276SOL    HW2 1010   1.820   3.163   2.092  1.4466 -1.6796  3.1457
  277SOL     OW 1011   1.413   0.456   2.060 -0.1494 -0.0728 -1.0715
  277SOL    HW1 1012   1.322   0.484   2.089  0.5351  0.4811  0.6936
  277SOL    HW2 1013   1.444   0.516   1.986 -0.6044  0.7956 -0.5790
  278SOL     OW 1014   1.994   2.896   2.111 -0.0686 -0.3293 -0.3728
  278SOL    HW1 1015   1.937   2.825   2.152  0.1017  0.5528  1.5219
  278SOL    HW2 1016   2.066   2.922   2.176  0.1629  1.2379 -1.1989
  279SOL     OW 1017   2.891   3.032   2.814 -0.1813  0.2052 -0.2083
  279SOL    HW1 1018   2.875   3.044   2.716 -0.2232  1.1132 -0.1007
  279SOL    HW2 1019   2.921   3.119   2.853 -0.8181  0.0303  0.7125
  280SOL     OW 1020   0.541   0.647   3.005  0.1799 -0.5217  0.6272
  280SOL    HW1 1021   0.453   0.685   2.976  0.3877  0.7069  1.5449
  280SOL    HW2 1022   0.535   0.619   3.101  0.8739 -0.1584  0.7813
  281SOL     OW 1023   1.624   2.563   1.373 -0.0801  0.1334 -0.0263
  281SOL    HW1 1024   1.712   2.598   1.342  0.1679  0.0125  0.5304
  281SOL    HW2 1025   1.559   2.563   1.297  0.0986  1.1959 -0.1855
  282SOL     OW 1026   1.583   2.171   0.186 -0.3680  0.5366 -0.3444
  282SOL    HW1 1027   1.555   2.186   0.091 -0.3293  1.7238 -0.1818
  282SOL    HW2 1028   1.552   2.081   0.215 -1.2170  0.5394 -1.1854
  283SOL     OW 1029   0.863   2.130   3.342 -0.0958  0.7216 -0.0103
  283SOL    HW1 1030   0.804   2.211   3.342 -0.5762  0.4564 -2.6409
  283SOL    HW2 1031   0.836   2.069   3.417 -0.1144  2.6708  1.6386
  284SOL     OW 1032   0.351   0.273   0.933 -0.1893 -0.3416 -0.1131
  284SOL    HW1 1033   0.271   0.224   0.968 -0.1533 -1.0305 -0.9430
  284SOL    HW2 1034   0.371   0.240   0.841  1.8444 -1.1090  0.5659
  285SOL     OW 1035   2.743   0.458   0.924 -0.0672  0.2468  0.2467
  285SOL    HW1 1036   2.739   0.514   0.842 -1.2693 -0.6891 -0.3574
  285SOL    HW2 1037   2.826   0.481   0.975 -0.3343  2.3119 -0.1499
  286SOL     OW 1038   0.942   0.062   2.105  0.2750  0.4273 -0.7514
  286SOL    HW1 1039   0.897   0.035   2.019  0.1852  1.7639 -1.1588
  286SOL    HW2 1040   0.956  -0.019   2.162 -0.2506 -0.3972 -1.7513
  287SOL     OW 1041   0.881   1.440   2.396 -0.0782  0.4600 -0.0499
  287SOL    HW1 1042   0.946   1.504   2.438 -0.9673  0.4064  1.4787
  287SOL    HW2 1043   0.928   1.354   2.377  0.0375 -0.0945  2.3757
  288SOL     OW 1044   0.405   3.395   1.932  0.7412 -0.4324 -0.0171
  288SOL    HW1 1045   0.380   3.486   1.963  2.1742  0.2938 -0.8479
  288SOL    HW2 1046   0.336   3.330   1.960 -1.4906  1.2458 -1.3016
  289SOL     OW 1047   2.614   3.575   3.024  0.3631  0.2463  0.2769
  289SOL    HW1 1048   2.519   3.559   2.995 -0.3933  2.0931  1.5206
  289SOL    HW2 1049   2.650   3.655   2.977  2.3249 -1.9301 -2.1850
  290SOL     OW 1050   2.956   0.977   0.603 -0.3104 -0.3325 -0.6867
  290SOL    HW1 1051   3.013   1.052   0.568  0.2250 -0.5999 -0.3932
  290SOL    HW2 1052   2.864   1.012   0.618  0.4365  0.8850  1.5411
  291SOL     OW 1053   0.484   0.272   2.041  0.2548  0.0940  0.3806
  291SOL    HW1 1054   0.483   0.363   2.000  1.9271 -0.5593 -1.2970
  291SOL    HW2 1055   0.480   0.280   2.140  1.2718  2.0464  0.3012
  292SOL     OW 1056   2.283   0.766   2.140 -0.3500  0.2095  0.0811
  292SOL    HW1 1057   2.189   0.793   2.163  0.0596  2.5270 -0.6604
  292SOL    HW2 1058   2.281   0.685   2.082 -1.8139 -0.3897  0.9021
  293SOL     OW 1059   3.020   2.659   0.365  0.4429 -0.1775 -0.3876
  293SOL    HW1 1060   3.106   2.709   0.354  3.3392 -4.5735 -0.3083
  293SOL    HW2 1061   2.998   2.655   0.462  0.1339  0.8712 -0.3964
  294SOL     OW 1062   1.428   1.067   3.161  0.2413  0.2322 -0.0439
  294SOL    HW1 1063   1.338   1.097   3.131 -0.7095 -1.1371  1.2461
  294SOL    HW2 1064   1.471   1.013   3.089 -0.6566 -0.4179 -0.1015
  295SOL     OW 1065   1.732   0.761   3.411 -0.3685  0.0774 -0.3127
  295SOL    HW1 1066   1.740   0.691   3.482 -0.7578 -0.2634 -0.6030
  295SOL    HW2 1067   1.705   0.718   3.325  2.7225  0.0833 -1.4004
  296SOL     OW 1068   3.046   2.280   2.574 -0.1512 -0.0808  0.0560
  296SOL    HW1 1069   3.050   2.380   2.565  3.0559 -0.2958 -3.3732
  296SOL    HW2 1070   3.017   2.241   2.487  2.7166 -2.1866 -0.0816
  297SOL     OW 1071   2.445   3.417   0.904 -0.3772 -0.4189  0.2187
  297SOL    HW1 1072   2.360   3.437   0.856 -0.6893  2.0425  1.6317
  297SOL    HW2 1073   2.489   3.503   0.930  1.2325 -1.6500  1.7842
  298SOL     OW 1074   3.362   1.835   0.321 -0.4351 -0.3285 -0.1780
  298SOL    HW1 1075   3.456   1.870   0.321  0.0234 -1.4669  0.8768
  298SOL    HW2 1076   3.306   1.893   0.262  0.5735  1.3260  0.3867
  299SOL     OW 1077   0.180   3.248   1.965  0.1824 -0.0354  0.1941
  299SOL    HW1 1078   0.217   3.155   1.962  2.0529  0.7095 -0.9997
  299SOL    HW2 1079   0.095   3.252   1.912  0.0040 -1.0778  0.3858
  300SOL     OW 1080   1.461   1.844   2.566  0.4079  0.7133  0.2549
  300SOL    HW1 1081   1.403   1.793   2.501  0.2385  0.9468  0.2228
  300SOL    HW2 1082   1.454   1.801   2.656  1.5330 -0.3100 -0.1154
  301SOL     OW 1083   1.674   1.026   3.327 -0.1661  0.0068  0.2082
  301SOL    HW1 1084   1.611   1.004   3.253 -1.5398  0.5252  1.1757
  301SOL    HW2 1085   1.704   0.942   3.372 -1.1512 -0.1840  0.5178
  302SOL     OW 1086   2.809   2.275   1.438 -0.2660  0.5246  0.4977
  302SOL    HW1 1087   2.908   2.278   1.424 -0.3734 -0.5534 -0.6217
  302SOL    HW2 1088   2.783   2.185   1.471 -1.0904  0.1496 -1.1207
  303SOL     OW 1089   2.311   1.870   0.533 -0.5255  0.1037  0.0087
  303SOL    HW1 1090   2.327   1.948   0.594 -1.6652 -0.0015  0.4542
  303SOL    HW2 1091   2.321   1.901   0.438  0.3317  0.4776  0.2090
  304SOL     OW 1092   1.843   2.693   1.655 -0.0180 -0.5547 -0.6341
  304SOL    HW1 1093   1.751   2.710   1.692  1.5584  3.1377  2.2314
  304SOL    HW2 1094   1.867   2.764   1.590  1.5572 -0.0984  0.3737
  305SOL     OW 1095   3.356   1.851   1.200 -0.6309  0.1667  0.2361
  305SOL    HW1 1096   3.346   1.751   1.199  1.2090 -0.0493 -1.2137
  305SOL    HW2 1097   3.399   1.879   1.285  1.0431 -0.5829 -0.3141
  306SOL     OW 1098   3.562   1.579   2.471 -0.1551 -0.9708 -0.2306
  306SOL    HW1 1099   3.490   1.540   2.527 -0.4079 -0.2699 -0.0578
  306SOL    HW2 1100   3.531   1.667   2.433  1.4958  0.7137  2.0186
  307SOL     OW 1101   1.349   2.517   0.180 -0.5438  0.1495  0.4063
  307SOL    HW1 1102   1.439   2.474   0.171  0.2844  1.8188  0.3326
  307SOL    HW2 1103   1.279   2.456   0.143  0.7214 -0.6248 -0.7837
  308SOL     OW 1104   1.908   1.203   2.003 -0.6833  0.1490 -0.1658
  308SOL    HW1 1105   1.932   1.243   2.092 -0.3246 -0.0233 -0.1842
  308SOL    HW2 1106   1.982   1.222   1.938 -0.6733 -0.2426 -0.2670
  309SOL     OW 1107   1.187   1.519   1.349 -0.4896  0.0728 -0.0027
  309SOL    HW1 1108   1.165   1.423   1.362  0.0698 -0.3559 -1.9420
  309SOL    HW2 1109   1.276   1.527   1.305 -1.1727  1.3798 -1.2570
  310SOL     OW 1110   1.683   3.088   0.384 -0.4720  0.3425 -0.0680
  310SOL    HW1 1111   1.681   3.002   0.333 -0.8752  1.0032 -1.2021
  310SOL    HW2 1112   1.768   3.136   0.363 -1.3483  1.3692 -1.4529
  311SOL     OW 1113   3.334   2.477   1.605 -0.2544  0.3743 -0.3028
  311SOL    HW1 1114   3.403   2.427   1.657 -2.2127 -1.2956  0.8629
  311SOL    HW2 1115   3.336   2.447   1.510 -0.1680 -0.5879 -0.0086
  312SOL     OW 1116   1.745   1.027   2.113  0.7696  0.0835 -0.2749
  312SOL    HW1 1117   1.806   1.090   2.066 -0.2822  0.4225 -1.2498
  312SOL    HW2 1118   1.707   1.071   2.194  0.7620  0.3598 -0.4306
  313SOL     OW 1119   0.723   1.252   3.341 -0.0974  0.1616  0.4293
  313SOL    HW1 1120   0.636   1.226   3.300  0.3812 -0.3614 -0.2696
  313SOL    HW2 1121   0.773   1.311   3.277  0.6060 -0.5721  0.2950
  314SOL     OW 1122   2.107   1.215   0.498  0.1569  0.2582 -0.2567
  314SOL    HW1 1123   2.094   1.287   0.430  1.6199 -1.6493 -2.7089
  314SOL    HW2 1124   2.085   1.127   0.458  0.2883 -0.9100  2.0458
  315SOL     OW 1125   2.881   2.411   1.180  0.0326 -0.5556 -0.0999
  315SOL    HW1 1126   2.967   2.444   1.218 -0.2244  0.1058 -0.0783
  315SOL    HW2 1127   2.883   2.311   1.175  1.8246 -0.5109 -2.4651
  316SOL     OW 1128   2.844   0.829   2.628 -0.1044  0.5592  0.5039
  316SOL    HW1 1129   2.861   0.739   2.669  0.1335  0.4477  0.1633
  316SOL    HW2 1130   2.745   0.846   2.627 -0.2653 -0.3378 -0.7601
  317SOL     OW 1131   2.038   0.128   1.290 -0.4320 -0.2055  0.1175
  317SOL    HW1 1132   2.047   0.034   1.321  1.0777  0.3264  1.4121
  317SOL    HW2 1133   2.108   0.148   1.222  1.3877  0.8191  2.1591
  318SOL     OW 1134   0.134   3.254   0.458  0.2997 -0.4863  0.4511
  318SOL    HW1 1135   0.225   3.234   0.422 -0.3043 -1.7632 -0.4429
  318SOL    HW2 1136   0.143   3.293   0.549  1.7504 -0.3319  0.2672
  319SOL     OW 1137   3.531   0.537   2.466  0.3436 -0.5895 -0.0281
  319SOL    HW1 1138   3.466   0.575   2.401  0.5664 -0.9738 -0.4795
  319SOL    HW2 1139   3.617   0.588   2.460  1.1943 -2.1192 -1.7758
  320SOL     OW 1140   1.784   2.110   1.822 -0.4495 -0.2847 -0.1519
  320SOL    HW1 1141   1.728   2.110   1.740 -1.5305 -0.9062  0.5551
  320SOL    HW2 1142   1.737   2.059   1.894 -0.0637  1.1820  1.2101
  321SOL     OW 1143   2.300   2.275   0.461 -0.2230  0.0726 -0.5211
  321SOL    HW1 1144   2.363   2.204   0.432 -0.6388  0.5935 -2.9019
  321SOL    HW2 1145   2.207   2.237   0.466 -0.1845  0.0349  0.0080
  322SOL     OW 1146   1.503   1.862   2.056  0.4927 -0.8145  0.0212
  322SOL    HW1 1147   1.575   1.931   2.065 -1.5309  1.4339 -0.1349
  322SOL    HW2 1148   1.470   1.861   1.962 -0.3090 -1.1672  0.3013
  323SOL     OW 1149   3.188   1.574   2.991  0.4606 -0.5108 -0.4342
  323SOL    HW1 1150   3.164   1.530   2.904  0.4749 -1.5988  0.0955
  323SOL    HW2 1151   3.235   1.661   2.972 -0.6512 -0.1082 -1.5027
  324SOL     OW 1152   2.635   2.897   3.584 -0.0029  0.4961 -0.7871
  324SOL    HW1 1153   2.549   2.946   3.602 -0.2355 -1.0768  3.5962
  324SOL    HW2 1154   2.702   2.921   3.654  0.4416 -3.9227  0.6124
  325SOL     OW 1155   2.470   0.065   0.121 -0.3794 -0.4291  0.0328
  325SOL    HW1 1156   2.383   0.019   0.141  0.0814 -0.9614  0.8891
  325SOL    HW2 1157   2.544  -0.002   0.121  0.3924  0.3401  1.8656
  326SOL     OW 1158   3.284   0.193   1.719  0.4227 -0.1390  0.7423
  326SOL    HW1 1159   3.207   0.253   1.743  0.2716  0.1933 -0.4906
  326SOL    HW2 1160   3.263   0.100   1.748 -0.7790 -0.1886 -0.2258
  327SOL     OW 1161   2.106   2.832   0.975 -0.3535  0.0332  0.1525
  327SOL    HW1 1162   2.199   2.869   0.984 -0.5530  0.2071  1.8292
  327SOL    HW2 1163   2.040   2.906   0.990 -0.8336  0.3239 -2.8251
  328SOL     OW 1164   1.288   0.019   3.360 -0.1264 -0.1001  0.5169
  328SOL    HW1 1165   1.198   0.058   3.382  0.2570  2.1151 -1.3666
  328SOL    HW2 1166   1.359   0.086   3.383  0.6631  0.0318 -1.9616
  329SOL     OW 1167   3.201   2.866   0.385  0.1220 -0.0524  0.4698
  329SOL    HW1 1168   3.132   2.936   0.404 -0.1772 -0.4352  0.7959
  329SOL    HW2 1169   3.238   2.831   0.471  0.7071  0.1285  0.2988
  330SOL     OW 1170   3.414   3.300   1.043 -0.4601  0.1125 -0.4079
  330SOL    HW1 1171   3.495   3.269   1.092 -0.5885 -1.5486 -1.1836
  330SOL    HW2 1172   3.334   3.248   1.075 -0.7905  0.0257 -1.3472
  331SOL     OW 1173   0.301   0.702   1.359  0.8446  0.0136 -0.6334
  331SOL    HW1 1174   0.307   0.612   1.401 -0.7979  0.0975 -0.1727
  331SOL    HW2 1175   0.339   0.770   1.422  3.1354 -0.4318 -1.4335
  332SOL     OW 1176   0.591   0.277   1.056 -0.5574 -0.2929 -0.1496
  332SOL    HW1 1177   0.513   0.262   0.997 -0.5470  0.7574 -0.4444
  332SOL    HW2 1178   0.562   0.274   1.152 -0.9187 -0.1311 -0.2550
  333SOL     OW 1179   1.734   1.899   0.572 -0.2517  0.0079  0.3661
  333SOL    HW1 1180   1.670   1.973   0.590 -0.4095  0.7788 -2.7877
  333SOL    HW2 1181   1.709   1.820   0.629 -3.4660  0.5608 -0.0691
  334SOL     OW 1182   1.610   2.810   2.884 -0.3198  0.4247  0.1169
  334SOL    HW1 1183   1.655   2.899   2.893  0.7196  0.1064 -1.4407
  334SOL    HW2 1184   1.573   2.801   2.791  0.2273 -1.0360  0.0159
  335SOL     OW 1185   1.297   3.191   3.351  0.4335 -0.4972 -0.8119
  335SOL    HW1 1186   1.298   3.158   3.257 -0.2450 -1.3285 -0.5380
  335SOL    HW2 1187   1.323   3.117   3.412 -0.1304 -0.2516 -0.2627
  336SOL     OW 1188   2.104   3.490   1.449  0.0995 -0.3668  0.2074
  336SOL    HW1 1189   2.066   3.408   1.490 -1.4319  1.2787  2.3081
  336SOL    HW2 1190   2.126   3.556   1.521 -1.4484  2.1687 -1.4850
  337SOL     OW 1191   0.320   3.138   0.157 -0.4440  0.0235 -0.1742
  337SOL    HW1 1192   0.273   3.056   0.122 -1.5285  0.5157  0.0680
  337SOL    HW2 1193   0.252   3.209   0.174  0.2755  0.4170  1.1939
  338SOL     OW 1194   2.766   3.041   0.189 -0.2052  0.5633 -0.1900
  338SOL    HW1 1195   2.857   3.080   0.175 -0.5666  0.5859 -3.0025
  338SOL    HW2 1196   2.700   3.116   0.197 -0.4501  0.6170 -2.2004
  339SOL     OW 1197   3.138   3.517   0.017  0.2137 -0.1655  0.1097
  339SOL    HW1 1198   3.211   3.456  -0.012  0.2216  0.5724 -1.5691
  339SOL    HW2 1199   3.165   3.612  -0.001 -1.2765  0.1096 -0.9208
  340SOL     OW 1200   1.257   0.856   2.054  0.4587  0.3684  0.2504
  340SOL    HW1 1201   1.183   0.804   2.098  0.9523  0.9189  1.7976
  340SOL    HW2 1202   1.284   0.809   1.969 -0.1686 -1.0442  0.7969
  341SOL     OW 1203   0.567   2.237   2.751 -0.1224  0.6720  0.5815
  341SOL    HW1 1204   0.552   2.240   2.652  0.5250  0.0221  0.4639
  341SOL    HW2 1205   0.644   2.296   2.774  1.0303 -0.7453  0.4432
  342SOL     OW 1206   0.043   1.172   2.025  0.1950  0.1995  0.2507
  342SOL    HW1 1207   0.006   1.171   2.119 -0.3253 -1.3469  0.0662
  342SOL    HW2 1208   0.096   1.256   2.011 -1.0738  1.2391  1.3923
  343SOL     OW 1209   2.912   3.505   1.666  0.1753  0.2105 -0.1428
  343SOL    HW1 1210   2.919   3.526   1.764  0.4059  0.7006 -0.2599
  343SOL    HW2 1211   2.978   3.433   1.644 -1.6819 -1.8156  0.5606
  344SOL     OW 1212   3.508   1.586   1.038  0.3133 -0.0620 -0.1648
  344SOL    HW1 1213   3.590   1.628   0.999  0.2295  0.1749 -0.0873
  344SOL    HW2 1214   3.505   1.604   1.136  1.0873 -1.5656  0.1712
  345SOL     OW 1215   0.472   3.526   1.183 -0.1671  0.0459 -0.8342
  345SOL    HW1 1216   0.386   3.495   1.142 -0.2133 -4.1057  1.7652
  345SOL    HW2 1217   0.548   3.497   1.126 -0.3696  0.5377 -1.3634
  346SOL     OW 1218   2.810   1.053   0.309 -0.5765 -0.0558 -0.7748
  346SOL    HW1 1219   2.769   0.964   0.290 -2.4773  0.9159 -1.5085
  346SOL    HW2 1220   2.783   1.083   0.401 -1.6309  0.6230 -1.2896
  347SOL     OW 1221   1.061   3.327   1.721 -0.2081  0.1520  0.0634
  347SOL    HW1 1222   0.997   3.254   1.745 -0.4769  0.5472  0.5692
  347SOL    HW2 1223   1.010   3.409   1.696  0.0915  0.1160 -0.6896
  348SOL     OW 1224   0.596   3.387   2.211  0.1844 -0.3399 -0.0557
  348SOL    HW1 1225   0.601   3.327   2.291 -1.9736  1.1981  1.3299
  348SOL    HW2 1226   0.505   3.428   2.206  0.5103  0.2207 -2.9064
  349SOL     OW 1227   3.167   2.119   0.206  0.4419 -0.2424  0.3174
  349SOL    HW1 1228   3.150   2.021   0.203  1.5515 -0.4404 -2.0690
  349SOL    HW2 1229   3.240   2.142   0.141  0.9952  2.0354  1.6136
  350SOL     OW 1230   2.836   3.214   3.367  0.6393 -0.2732 -0.2646
  350SOL    HW1 1231   2.923   3.201   3.414 -0.2118 -0.3157  1.3641
  350SOL    HW2 1232   2.797   3.125   3.344 -0.7558 -0.4539  2.4798
  351SOL     OW 1233   0.266   2.831   2.789 -0.3679  0.3922 -0.0268
  351SOL    HW1 1234   0.336   2.770   2.827  0.0290  0.4718 -0.6290
  351SOL    HW2 1235   0.202   2.777   2.733  0.3190  0.6011 -1.0382
  352SOL     OW 1236   3.291   0.474   0.573 -0.3908  0.2151 -0.0938
  352SOL    HW1 1237   3.215   0.474   0.638 -0.9979  0.4622 -0.7848
  352SOL    HW2 1238   3.342   0.388   0.582 -0.3141  0.3526  0.8711
  353SOL     OW 1239   2.664   1.210   1.678  0.2158  0.6391  0.5552
  353SOL    HW1 1240   2.757   1.241   1.699  0.9532 -1.7243  1.1042
  353SOL    HW2 1241   2.621   1.175   1.762  0.1046 -1.2990 -0.2519
  354SOL     OW 1242   2.891   3.515   2.342 -0.2085 -0.4223  0.2851
  354SOL    HW1 1243   2.885   3.610   2.373  1.9352  0.1422 -0.8184
  354SOL    HW2 1244   2.927   3.458   2.417  0.2445 -0.0025  0.3912
  355SOL     OW 1245   0.926   0.478   3.081 -0.3054 -0.5282 -0.0232
  355SOL    HW1 1246   0.912   0.445   2.988  0.8644  0.1120 -0.4481
  355SOL    HW2 1247   0.999   0.546   3.081 -2.8945  2.4452  0.7437
  356SOL     OW 1248   0.596   0.851   1.117  0.2098  0.1888  0.2329
  356SOL    HW1 1249   0.582   0.940   1.160  0.9492  2.7112 -4.1005
  356SOL    HW2 1250   0.509   0.816   1.082  0.0692 -0.3271  1.0816
  357SOL     OW 1251   2.034   0.838   2.206 -0.3077 -0.4474 -0.6324
  357SOL    HW1 1252   2.043   0.909   2.275  0.4398 -1.4366  0.3260
  357SOL    HW2 1253   1.944   0.795   2.214  0.2387 -1.4133  0.6111
  358SOL     OW 1254   1.370   2.958   3.507  0.4715  0.3081 -0.1042
  358SOL    HW1 1255   1.422   2.878   3.476  0.8644 -0.1019  1.5353
  358SOL    HW2 1256   1.423   3.007   3.577 -0.7383  0.7104  0.5590
  359SOL     OW 1257   2.253   0.955   2.564 -0.2157 -0.2784 -0.8929
  359SOL    HW1 1258   2.310   1.025   2.608 -0.2630 -0.4073 -0.6231
  359SOL    HW2 1259   2.309   0.875   2.544 -0.8765 -1.7035  2.2509
  360SOL     OW 1260   0.155   1.865   3.310 -0.7551  0.3051  0.0981
  360SOL    HW1 1261   0.089   1.801   3.349  0.1972  0.4889  2.1399
  360SOL    HW2 1262   0.114   1.912   3.232 -2.7007 -0.2291  0.7613
  361SOL     OW 1263   3.325   3.244   0.174  0.0331  0.0407 -0.2398
  361SOL    HW1 1264   3.405   3.230   0.231  1.2135 -1.6551 -2.1765
  361SOL    HW2 1265   3.350   3.297   0.093 -0.4788 -1.3646 -1.3788
  362SOL     OW 1266   3.295   0.274   3.230  0.1546 -0.0400 -0.1813
  362SOL    HW1 1267   3.352   0.347   3.267 -0.2091 -0.4787  1.3152
  362SOL    HW2 1268   3.308   0.192   3.286 -1.8768 -0.1788  0.1409
  363SOL     OW 1269   1.190   0.910   3.398  0.3829 -0.6867  0.5863
  363SOL    HW1 1270   1.260   0.841   3.378  1.1377  0.6676 -1.7972
  363SOL    HW2 1271   1.210   0.993   3.346 -1.7362  0.5687  1.6639
  364SOL     OW 1272   2.112   1.823   0.714 -1.0032  0.2115  0.1260
  364SOL    HW1 1273   2.193   1.813   0.657 -0.7802 -2.8786  0.8140
  364SOL    HW2 1274   2.140   1.839   0.808 -1.1227 -1.4186  0.4610
  365SOL     OW 1275   0.114   3.340   0.129  0.0721  0.1861 -0.1920
  365SOL    HW1 1276   0.059   3.395   0.191  0.5459 -0.2921  0.6665
  365SOL    HW2 1277   0.064   3.255   0.108  0.6237 -0.4076  0.8670
  366SOL     OW 1278   2.823   3.158   0.640  0.2132 -0.0987 -0.0105
  366SOL    HW1 1279   2.851   3.243   0.594  0.6255  0.6705  1.5835
  366SOL    HW2 1280   2.735   3.172   0.685  0.4275 -0.4053  0.5158
  367SOL     OW 1281   1.251   2.680   1.392 -0.4994 -0.0651 -0.4355
  367SOL    HW1 1282   1.251   2.596   1.446 -1.4297  1.0919  1.4801
  367SOL    HW2 1283   1.340   2.725   1.401 -1.0534  0.7773  1.3151
  368SOL     OW 1284   1.929   2.374   2.141  0.1060 -0.6405  0.5976
  368SOL    HW1 1285   1.978   2.344   2.059 -0.2010 -0.3727  0.3088
  368SOL    HW2 1286   1.832   2.353   2.130 -0.1007  0.3220  0.4342
  369SOL     OW 1287   0.526   1.110   1.209  0.4685 -0.4007 -0.4198
  369SOL    HW1 1288   0.447   1.139   1.155  0.3624  1.3590  0.6053
  369SOL    HW2 1289   0.599   1.177   1.199  0.3353  0.1734  1.7978
  370SOL     OW 1290   2.698   2.257   0.490  0.3835  0.3441  0.1662
  370SOL    HW1 1291   2.634   2.281   0.563  1.3696 -1.5315  1.7506
  370SOL    HW2 1292   2.788   2.294   0.511  0.2621  1.5244 -1.1928
  371SOL     OW 1293   3.333   2.437   2.511  0.4142  0.2651  0.0297
  371SOL    HW1 1294   3.239   2.425   2.543  0.0920  1.0067 -0.6022
  371SOL    HW2 1295   3.359   2.359   2.454  0.6717 -0.6108  1.3237
  372SOL     OW 1296   2.055   3.336   1.975  0.0636  0.6849  0.5476
  372SOL    HW1 1297   1.982   3.334   2.044  0.8245 -1.1377  1.3765
  372SOL    HW2 1298   2.097   3.245   1.969  2.5319  1.7606  0.3641
  373SOL     OW 1299   1.269   2.319   3.407  0.1479  0.0427 -0.1040
  373SOL    HW1 1300   1.209   2.261   3.461  1.1986  0.2779  1.3693
  373SOL    HW2 1301   1.217   2.398   3.373 -0.1975  0.7123  1.8919
  374SOL     OW 1302   3.075   2.545   1.337  0.4563  0.0479  0.3773
  374SOL    HW1 1303   3.086   2.638   1.303  0.3540  0.2619  0.9258
  374SOL    HW2 1304   3.161   2.495   1.326  0.3689  0.0490 -0.3788
  375SOL     OW 1305   1.550   0.315   3.208  0.3138  0.2405  0.4291
  375SOL    HW1 1306   1.601   0.236   3.174  1.5387  0.7229  1.0751
  375SOL    HW2 1307   1.518   0.369   3.131  1.5328  0.3792  0.0019
  376SOL     OW 1308   2.158   2.601   2.250 -0.0896 -0.5412 -0.1072
  376SOL    HW1 1309   2.068   2.609   2.207 -0.1098  0.0927  0.0467
  376SOL    HW2 1310   2.148   2.617   2.348  0.5884  2.4318 -0.4362
  377SOL     OW 1311   0.641   3.000   2.047  0.2947 -0.0974  1.0310
  377SOL    HW1 1312   0.555   2.993   2.099  0.5897 -0.1357  1.5220
  377SOL    HW2 1313   0.648   3.091   2.007 -1.4537 -1.0164 -1.6516
  378SOL     OW 1314   2.163   0.262   0.828 -0.0076 -0.2183  0.9508
  378SOL    HW1 1315   2.067   0.257   0.799  0.2139 -1.7904  0.4164
  378SOL    HW2 1316   2.200   0.351   0.800 -1.3530  0.4943  1.3498
  379SOL     OW 1317   3.532   2.380   1.751  0.0850  0.0102 -0.3160
  379SOL    HW1 1318   3.556   2.284   1.767 -0.7208 -0.2835 -0.8268
  379SOL    HW2 1319   3.519   2.425   1.840  0.6155 -0.3119 -0.0682
  380SOL     OW 1320   0.234   0.845   0.700  0.0928  0.3586 -0.4818
  380SOL    HW1 1321   0.266   0.935   0.672  2.2229 -0.5548 -1.1533
  380SOL    HW2 1322   0.167   0.855   0.774  1.0044  2.4402  0.1234
  381SOL     OW 1323   2.873   0.566   2.720 -0.3256  0.3459 -0.4716
  381SOL    HW1 1324   2.909   0.575   2.813  0.5001  1.7831 -0.8776
  381SOL    HW2 1325   2.950   0.554   2.657 -0.9260 -1.4540 -0.9201
  382SOL     OW 1326   3.348   0.083   3.430  0.0442  0.0355  0.4454
  382SOL    HW1 1327   3.299   0.134   3.501  0.9480  1.8481 -0.1556
  382SOL    HW2 1328   3.427   0.038   3.472 -0.0996  0.1098  0.8021
  383SOL     OW 1329   3.470   3.571   3.005 -0.4438 -0.4520 -0.1006
  383SOL    HW1 1330   3.508   3.483   3.033  0.6845 -0.1497 -0.6323
  383SOL    HW2 1331   3.462   3.574   2.906 -0.1664  0.1525 -0.1118
  384SOL     OW 1332   1.406   2.795   0.419 -0.4355  0.3545  0.3586
  384SOL    HW1 1333   1.457   2.712   0.442  0.8711  0.4928 -1.6996
  384SOL    HW2 1334   1.366   2.784   0.328 -0.4149  1.8968  0.1366
  385SOL     OW 1335   3.588   1.923   2.022 -0.4688  0.5257  0.2108
  385SOL    HW1 1336   3.688   1.920   2.023 -0.3144  3.3877  0.9761
  385SOL    HW2 1337   3.555   1.945   2.114 -1.7631  0.5242 -0.2330
  386SOL     OW 1338   0.379   1.481   0.319  0.0142 -0.2590 -0.0285
  386SOL    HW1 1339   0.467   1.482   0.367  0.3787 -0.2475 -0.6789
  386SOL    HW2 1340   0.394   1.508   0.223 -0.7639  0.1754 -0.0385
  387SOL     OW 1341   2.333   2.482   0.288 -0.2499 -0.1254  0.1334
  387SOL    HW1 1342   2.253   2.542   0.281 -0.6951 -0.6807  0.3517
  387SOL    HW2 1343   2.323   2.424   0.368 -0.0313 -0.7923 -0.3158
  388SOL     OW 1344   2.212   0.781   1.013  0.5929 -0.4240 -0.4578
  388SOL    HW1 1345   2.159   0.705   1.050 -1.2933  0.7338 -0.7048
  388SOL    HW2 1346   2.164   0.820   0.934  0.8516  1.8323  0.4227
  389SOL     OW 1347   1.752   3.220   3.308 -0.2015  0.2286  0.3753
  389SOL    HW1 1348   1.674   3.158   3.303 -0.1500  0.1317  0.7033
  389SOL    HW2 1349   1.777   3.250   3.216  1.4726 -2.3541 -0.1236
  390SOL     OW 1350   1.391   0.733   3.343 -0.3832  0.4228  0.3376
  390SOL    HW1 1351   1.466   0.779   3.296 -1.3185  2.2880  0.5657
  390SOL    HW2 1352   1.427   0.684   3.423  0.7088  0.3601 -0.1721
  391SOL     OW 1353   2.848   1.657   0.619  0.7275  0.0350 -0.3090
  391SOL    HW1 1354   2.940   1.620   0.630  1.2835  1.2247 -0.7698
  391SOL    HW2 1355   2.852   1.756   0.625 -0.7250  0.0456  0.9416
  392SOL     OW 1356   2.939   1.230   1.747  0.1576 -0.0184 -0.3903
  392SOL    HW1 1357   2.995   1.274   1.676  1.3485 -0.3166  0.3205
  392SOL    HW2 1358   2.966   1.134   1.755  0.3523  0.1198  0.7496
  393SOL     OW 1359   0.564   1.023   2.234 -0.3040 -0.3882 -0.2119
  393SOL    HW1 1360   0.560   1.118   2.266  0.0029 -0.6473  0.6357
  393SOL    HW2 1361   0.503   1.012   2.156 -0.1767  0.5600 -0.4616
  394SOL     OW 1362   1.093   0.310   1.509  0.1016 -0.1060 -0.5108
  394SOL    HW1 1363   1.119   0.280   1.601 -0.8341  0.1698 -0.1446
  394SOL    HW2 1364   1.010   0.261   1.481 -0.6091  1.0482 -0.4981
  395SOL     OW 1365   1.888   0.127   0.382  0.0553 -0.4373 -0.1616
  395SOL    HW1 1366   1.895   0.068   0.462 -0.7625 -1.5837 -0.9094
  395SOL    HW2 1367   1.803   0.106   0.333 -0.1562  1.2101 -0.5768
  396SOL     OW 1368   0.833   1.492   1.682  0.3634  0.4418  0.0056
  396SOL    HW1 1369   0.908   1.547   1.721  0.6535 -0.1011  0.2212
  396SOL    HW2 1370   0.751   1.507   1.737  0.3492  0.9256 -0.1413
  397SOL     OW 1371   1.861   3.190   2.431 -0.0720 -0.0712 -0.2251
  397SOL    HW1 1372   1.795   3.257   2.465  0.2452 -0.3622  1.0020
  397SOL    HW2 1373   1.816   3.101   2.422 -0.0708 -0.0676 -0.2685
  398SOL     OW 1374   0.168   2.456   2.803 -0.2503  0.5599  0.2539
  398SOL    HW1 1375   0.083   2.414   2.770  0.7352 -1.3167 -0.0337
  398SOL    HW2 1376   0.222   2.487   2.725 -0.4897  1.4179  0.4201
  399SOL     OW 1377   3.299   1.407   3.579 -0.2937  0.2923  1.0929
  399SOL    HW1 1378   3.381   1.464   3.578  0.6985 -1.1178 -0.0266
  399SOL    HW2 1379   3.228   1.454   3.633  1.5140  1.1009  2.8877
  400SOL     OW 1380   2.403   3.041   3.590 -0.3985  0.1728  0.5364
  400SOL    HW1 1381   2.383   3.021   3.494  1.3224  0.0889  0.1573
  400SOL    HW2 1382   2.357   3.126   3.616 -1.4736 -0.1879 -0.1320
  401SOL     OW 1383   3.180   0.992   1.266 -0.4938  0.3832  0.0546
  401SOL    HW1 1384   3.152   1.017   1.359  0.0693  1.8835 -0.1469
  401SOL    HW2 1385   3.241   0.913   1.270 -1.3844 -0.2925  0.8439
  402SOL     OW 1386   2.986   2.168   2.328 -0.5011 -0.1807  0.5476
  402SOL    HW1 1387   2.910   2.188   2.266 -0.5666  0.1769  0.7405
  402SOL    HW2 1388   3.071   2.204   2.288 -0.5402  0.0325  0.6587
  403SOL     OW 1389   1.384   0.024   0.474  0.8894 -0.0729 -0.2208
  403SOL    HW1 1390   1.286   0.032   0.453  0.5977 -0.7273  0.8285
  403SOL    HW2 1391   1.424  -0.047   0.416  0.5656 -0.3633 -0.0922
  404SOL     OW 1392   0.943   3.421   2.321 -0.3579  0.5246  0.0318
  404SOL    HW1 1393   1.027   3.404   2.373 -0.4923 -0.9461 -0.1833
  404SOL    HW2 1394   0.926   3.343   2.260 -2.1446  0.5601  0.4349
  405SOL     OW 1395   0.539   2.802   0.453  0.1407  0.8477 -0.6558
  405SOL    HW1 1396   0.627   2.848   0.446  0.4610  0.2852 -0.4170
  405SOL    HW2 1397   0.471   2.865   0.492  0.2861  1.4708 -1.3846
  406SOL     OW 1398   0.939   2.335   0.699  0.4197 -0.4259  0.2031
  406SOL    HW1 1399   1.025   2.375   0.664  1.3357 -2.1828  0.3537
  406SOL    HW2 1400   0.867   2.404   0.692  1.0251  0.0460 -3.1250
  407SOL     OW 1401   0.211   2.893   0.831 -0.3739 -0.5448  0.7090
  407SOL    HW1 1402   0.153   2.823   0.874  1.3058 -1.6664  1.2415
  407SOL    HW2 1403   0.257   2.946   0.903  0.7852 -0.9952  0.3188
  408SOL     OW 1404   3.245   1.220   1.771 -0.1935 -0.0842 -0.7541
  408SOL    HW1 1405   3.183   1.270   1.711 -0.6658 -0.5144 -0.6327
  408SOL    HW2 1406   3.205   1.216   1.863  1.2368  1.9565  0.0323
  409SOL     OW 1407   2.152   3.125   0.891  0.5075  0.3398  0.5626
  409SOL    HW1 1408   2.216   3.162   0.958  0.3149 -0.5293  1.2384
  409SOL    HW2 1409   2.203   3.085   0.815  0.7502  0.3744  0.7076
  410SOL     OW 1410   3.480   1.130   1.607  0.5551 -0.4837 -0.1314
  410SOL    HW1 1411   3.574   1.140   1.642  0.8543  0.7106 -1.2017
  410SOL    HW2 1412   3.416   1.138   1.683  1.2683  0.0170  0.4318
  411SOL     OW 1413   0.269   3.231   3.057 -0.0031  0.2480 -0.0972
  411SOL    HW1 1414   0.263   3.131   3.053 -1.3351  0.2732  0.6239
  411SOL    HW2 1415   0.320   3.265   2.978  1.9798 -1.1008  0.5191
  412SOL     OW 1416   1.852   0.485   3.183  0.4496  0.1049  0.0630
  412SOL    HW1 1417   1.867   0.446   3.274  0.6209  1.5836  0.7004
  412SOL    HW2 1418   1.776   0.437   3.139 -1.2452  0.8916  1.9546
  413SOL     OW 1419   3.509   1.634   1.313  0.3248  0.9297  0.0996
  413SOL    HW1 1420   3.528   1.575   1.391  1.8574  0.0122 -0.9142
  413SOL    HW2 1421   3.527   1.729   1.338 -2.3564  1.0803  1.8076
  414SOL     OW 1422   2.059   1.347   2.639 -0.2484 -0.2087 -0.5022
  414SOL    HW1 1423   2.122   1.424   2.633 -0.6809  0.1949  0.0758
  414SOL    HW2 1424   2.024   1.326   2.548 -0.6161  0.6919 -0.5749
  415SOL     OW 1425   1.617   2.455   0.969 -0.0476  0.3081 -0.5168
  415SOL    HW1 1426   1.684   2.414   0.907 -0.9209 -0.5663 -0.9088
  415SOL    HW2 1427   1.559   2.382   1.006  0.8620  0.7085  1.8661
  416SOL     OW 1428   3.016   2.392   3.303  0.1147  0.4486  0.2207
  416SOL    HW1 1429   3.109   2.428   3.297  1.5370 -2.8745 -0.2447
  416SOL    HW2 1430   3.008   2.336   3.385 -0.2481 -2.1484 -1.4646
  417SOL     OW 1431   2.150   2.965   1.271  0.6004 -0.0923 -0.2498
  417SOL    HW1 1432   2.227   2.947   1.210 -0.0865 -0.5243 -1.0063
  417SOL    HW2 1433   2.126   3.062   1.268  0.7815 -0.0527 -0.4014
  418SOL     OW 1434   1.643   2.311   2.157 -0.9931  0.4933  0.0355
  418SOL    HW1 1435   1.591   2.335   2.239 -2.4320 -0.2416 -0.6156
  418SOL    HW2 1436   1.596   2.348   2.077  1.4870  3.0373 -0.4107
  419SOL     OW 1437   2.170   2.644   2.529 -0.1048 -0.2309 -0.0281
  419SOL    HW1 1438   2.267   2.644   2.503 -0.0964  2.2418 -0.2922
  419SOL    HW2 1439   2.155   2.577   2.601  1.5811 -1.4010 -0.7036
  420SOL     OW 1440   2.359   0.448   2.885  0.0783  0.2496 -0.2232
  420SOL    HW1 1441   2.359   0.511   2.807 -1.2105 -0.7254 -1.0461
  420SOL    HW2 1442   2.314   0.493   2.963  0.2479  0.7747 -0.4218
  421SOL     OW 1443   0.421   1.326   3.014  0.0554 -0.2942 -0.1457
  421SOL    HW1 1444   0.466   1.396   2.959 -1.2143  0.6090 -0.0671
  421SOL    HW2 1445   0.379   1.258   2.953 -1.5534  0.8329 -0.3364
  422SOL     OW 1446   0.055   3.340   2.363  0.4823 -0.0592 -0.1874
  422SOL    HW1 1447  -0.041   3.349   2.338 -0.1614 -1.5245  1.5023
  422SOL    HW2 1448   0.073   3.397   2.443  0.8232 -0.3733 -0.0396
  423SOL     OW 1449   0.823   2.678   3.222  0.0985  0.4025 -0.6628
  423SOL    HW1 1450   0.850   2.711   3.313 -0.5891  0.9757 -0.6523
  423SOL    HW2 1451   0.845   2.748   3.154 -1.4948  0.9918 -0.6236
  424SOL     OW 1452   2.634   3.346   2.257 -0.2487 -0.4411  0.0362
  424SOL    HW1 1453   2.558   3.403   2.225 -0.8330 -1.2973 -0.1324
  424SOL    HW2 1454   2.713   3.404   2.275 -1.7404  0.8844  2.9453
  425SOL     OW 1455   1.761   2.996   1.554 -0.1942 -0.6485  0.2292
  425SOL    HW1 1456   1.727   3.077   1.507  0.2728 -0.3470  0.4043
  425SOL    HW2 1457   1.830   2.951   1.497 -0.0361 -0.5945  0.3729
  426SOL     OW 1458   2.650   0.463   0.433 -0.2752 -0.1519 -0.9363
  426SOL    HW1 1459   2.630   0.523   0.356 -4.1500 -1.0184 -0.7827
  426SOL    HW2 1460   2.635   0.368   0.407  1.6510 -0.7787  0.0164
  427SOL     OW 1461   0.306   1.632   3.350 -0.1326 -0.4617  0.2227
  427SOL    HW1 1462   0.249   1.559   3.312 -0.6429 -0.2792  0.6256
  427SOL    HW2 1463   0.261   1.720   3.334 -0.6141 -0.4216  1.6789
  428SOL     OW 1464   0.441   0.166   0.373 -0.3738 -0.4490 -0.1384
  428SOL    HW1 1465   0.375   0.105   0.416 -0.9578 -0.5481 -1.1540
  428SOL    HW2 1466   0.527   0.117   0.360 -0.8453 -1.0665 -0.9642
  429SOL     OW 1467   3.231   2.527   3.477  0.3266 -0.0691 -0.8671
  429SOL    HW1 1468   3.157   2.595   3.477 -1.3312 -1.8008 -0.9119
  429SOL    HW2 1469   3.272   2.524   3.568 -0.5728 -0.0148 -0.4461
  430SOL     OW 1470   3.178   2.880   2.885  0.1630 -0.2618 -0.3627
  430SOL    HW1 1471   3.088   2.903   2.848 -0.2985 -0.1760  0.7959
  430SOL    HW2 1472   3.235   2.962   2.886  0.3223 -0.3451 -1.2274
  431SOL     OW 1473   3.350   2.167   3.580  0.1711 -0.5398 -0.3168
  431SOL    HW1 1474   3.372   2.262   3.600  0.6964 -0.5613 -0.7566
  431SOL    HW2 1475   3.396   2.140   3.495 -1.1390 -0.7498 -0.9865
  432SOL     OW 1476   0.276   2.991   1.937 -0.6433 -0.2957 -0.2585
  432SOL    HW1 1477   0.327   2.947   2.011  0.6207 -0.4976 -1.2271
  432SOL    HW2 1478   0.337   3.010   1.861 -1.3613  2.1483 -0.3422
  433SOL     OW 1479   1.621   1.407   2.162 -0.2491 -0.1664  0.7911
  433SOL    HW1 1480   1.587   1.399   2.068 -0.2550 -0.4018  0.8114
  433SOL    HW2 1481   1.685   1.483   2.168  0.2471 -0.5532  0.4490
  434SOL     OW 1482   1.688   0.251   2.437 -0.1661  1.0153  0.5803
  434SOL    HW1 1483   1.731   0.217   2.521 -0.1038  0.5457  0.3578
  434SOL    HW2 1484   1.734   0.334   2.408 -0.1382  1.1404  0.9683
  435SOL     OW 1485   0.700   1.325   2.565  0.0414 -0.7361  0.1105
  435SOL    HW1 1486   0.719   1.389   2.640  1.3847 -1.0181  0.0292
  435SOL    HW2 1487   0.749   1.355   2.484  0.1380 -1.5060 -0.1197
  436SOL     OW 1488   1.747   1.408   2.602  0.0943  0.1534 -0.5426
  436SOL    HW1 1489   1.834   1.359   2.613  1.3496  2.4951  1.0355
  436SOL    HW2 1490   1.763   1.490   2.547 -1.7688 -0.7228 -2.5170
  437SOL     OW 1491   0.281   0.438   2.564 -0.1438 -0.5239  0.1139
  437SOL    HW1 1492   0.232   0.357   2.597  0.6306 -1.5943 -1.2488
  437SOL    HW2 1493   0.379   0.421   2.567  0.0279  0.3503 -0.2424
  438SOL     OW 1494   1.956   1.022   3.314 -0.5656  0.1982 -0.3907
  438SOL    HW1 1495   1.905   1.002   3.230 -1.9298  0.1019  0.4379
  438SOL    HW2 1496   1.893   1.048   3.386  0.6101  0.5404  0.5543
  439SOL     OW 1497   0.469   2.006   0.041 -0.5389  0.1363  0.0172
  439SOL    HW1 1498   0.472   1.967   0.133  0.8246 -0.3063 -0.1969
  439SOL    HW2 1499   0.556   2.052   0.022 -1.1644  1.0607 -0.7036
  440SOL     OW 1500   1.648   0.916   1.146  0.2221  0.4252 -0.1639
  440SOL    HW1 1501   1.591   0.865   1.081  1.0711 -0.8185  0.0417
  440SOL    HW2 1502   1.642   1.013   1.125 -1.1980  0.2349 -0.7589
  441SOL     OW 1503   0.660   2.841   1.801 -0.1643  0.0493 -0.3652
  441SOL    HW1 1504   0.646   2.913   1.869 -0.1100 -0.0789 -0.2189
  441SOL    HW2 1505   0.645   2.752   1.843  0.2205 -0.0471 -0.4269
  442SOL     OW 1506   1.890   0.785   0.289 -0.1318 -0.2241  0.1722
  442SOL    HW1 1507   1.901   0.697   0.244  0.1293  0.2450 -0.7094
  442SOL    HW2 1508   1.809   0.831   0.252  0.7570  0.6755 -0.7046
  443SOL     OW 1509   1.302   2.722   0.665 -0.3308  0.3658 -0.4895
  443SOL    HW1 1510   1.333   2.763   0.579  2.0587  1.1549  0.6786
  443SOL    HW2 1511   1.362   2.646   0.689 -2.1529 -1.1462 -0.4412
  444SOL     OW 1512   1.737   0.072   2.231  0.3042  0.1464 -0.4276
  444SOL    HW1 1513   1.816   0.109   2.183  1.7343  0.1582  1.7660
  444SOL    HW2 1514   1.713   0.133   2.307 -1.5493 -0.0960 -0.7668
  445SOL     OW 1515   0.295   0.791   3.324 -0.1829  0.0297 -0.0771
  445SOL    HW1 1516   0.217   0.837   3.283 -0.3417 -1.0007 -0.9575
  445SOL    HW2 1517   0.379   0.840   3.299 -0.2869 -0.5412 -1.5887
  446SOL     OW 1518   2.345   2.794   2.263  0.2486  0.2809  0.1645
  446SOL    HW1 1519   2.281   2.722   2.235 -1.2553  0.9176  1.7753
  446SOL    HW2 1520   2.398   2.761   2.341  1.1522  0.1702 -0.4693
  447SOL     OW 1521   0.339   2.642   0.323  0.1946 -0.1853 -0.4400
  447SOL    HW1 1522   0.416   2.697   0.353  0.7573 -1.5851  0.7630
  447SOL    HW2 1523   0.367   2.546   0.312 -0.5768 -0.2141 -3.1619
  448SOL     OW 1524   2.736   3.236   1.187  0.4196  0.0158  0.2266
  448SOL    HW1 1525   2.783   3.244   1.275  2.7414 -1.1157 -0.8022
  448SOL    HW2 1526   2.664   3.167   1.194 -0.7228  1.2852  1.6750
  449SOL     OW 1527   2.036   1.002   0.317  0.0972  0.0478 -0.3789
  449SOL    HW1 1528   2.129   0.964   0.315 -0.2951 -0.9203 -0.7606
  449SOL    HW2 1529   1.970   0.928   0.305 -0.6903  0.9055 -1.5139
  450SOL     OW 1530   2.363   3.004   3.315  0.6440  0.1430 -0.4366
  450SOL    HW1 1531   2.319   2.995   3.226  0.3433 -1.0665 -0.1776
  450SOL    HW2 1532   2.441   3.066   3.306  1.7088 -1.3168 -1.9629
  451SOL     OW 1533   2.412   1.465   0.779  0.2252 -0.1331  0.0366
  451SOL    HW1 1534   2.345   1.503   0.843 -2.3848 -2.5453 -1.0533
  451SOL    HW2 1535   2.370   1.458   0.688  1.8137 -2.0810 -0.6220
  452SOL     OW 1536   1.770   2.911   2.470 -0.4075  0.1118 -0.3523
  452SOL    HW1 1537   1.865   2.900   2.498 -0.1789  2.2623 -0.0677
  452SOL    HW2 1538   1.711   2.859   2.532  0.4939 -0.0197  0.4198
  453SOL     OW 1539   1.447   3.545   2.561 -0.0468  0.1739 -0.3901
  453SOL    HW1 1540   1.371   3.490   2.528  0.6804  0.1298 -2.0972
  453SOL    HW2 1541   1.488   3.501   2.641 -0.8934 -0.5431 -0.3441
  454SOL     OW 1542   2.068   2.808   1.788 -0.0958  0.2231  0.2086
  454SOL    HW1 1543   2.026   2.885   1.837 -2.2558 -0.4960 -0.4182
  454SOL    HW2 1544   1.996   2.746   1.756  1.5052 -1.3052 -0.5884
  455SOL     OW 1545   1.018   1.842   0.547 -0.1166  0.1708  0.3757
  455SOL    HW1 1546   1.043   1.935   0.522 -1.8625  0.6209  0.1565
  455SOL    HW2 1547   0.933   1.844   0.599 -1.6075 -1.4666 -1.8334
  456SOL     OW 1548   2.042   0.600   1.101 -0.0962 -0.4246  0.0469
  456SOL    HW1 1549   1.973   0.537   1.065 -0.0322 -0.7968  0.5725
  456SOL    HW2 1550   1.997   0.680   1.140 -0.2147 -0.5125  0.0893
  457SOL     OW 1551   3.576   3.109   0.018 -0.4498 -0.0145 -0.0894
  457SOL    HW1 1552   3.634   3.033  -0.010 -0.4933 -0.4046  0.8411
  457SOL    HW2 1553   3.487   3.074   0.049 -1.0497  0.5433 -1.1066
  458SOL     OW 1554   2.606   2.010   0.428  0.6937  0.5600  0.1702
  458SOL    HW1 1555   2.636   2.101   0.455 -0.0481  0.8183  0.1519
  458SOL    HW2 1556   2.551   2.017   0.345 -2.9598  0.6993  2.3807
  459SOL     OW 1557   1.141   2.434   2.347 -0.1321 -0.3345  0.3886
  459SOL    HW1 1558   1.235   2.426   2.379  0.4800 -2.7244 -1.6664
  459SOL    HW2 1559   1.137   2.503   2.274 -0.0972  0.0945  0.7866
  460SOL     OW 1560   0.690   3.454   1.045 -0.5100 -0.1831 -0.2113
  460SOL    HW1 1561   0.770   3.514   1.048 -0.1020 -0.7521  0.7465
  460SOL    HW2 1562   0.711   3.369   1.093 -1.7435 -0.2869  0.1790
  461SOL     OW 1563   1.785   0.408   2.025  0.2715  0.5571  0.1227
  461SOL    HW1 1564   1.733   0.323   2.017 -0.4080  1.1068 -2.1742
  461SOL    HW2 1565   1.873   0.396   1.980  0.1019  1.0881 -0.3630
  462SOL     OW 1566   0.013   2.879   0.256  0.2907  0.2196  0.6892
  462SOL    HW1 1567   0.030   2.907   0.350  1.6196  2.8061 -0.2233
  462SOL    HW2 1568  -0.058   2.937   0.216  1.4735  0.8488 -0.5967
  463SOL     OW 1569   1.393   3.179   0.893 -0.0839  0.3839  0.0411
  463SOL    HW1 1570   1.470   3.240   0.915 -0.2780  0.9573 -0.8048
  463SOL    HW2 1571   1.427   3.085   0.884  0.1615  0.2805  1.7218
  464SOL     OW 1572   1.054   1.859   1.625  0.2532 -0.1165 -0.5482
  464SOL    HW1 1573   1.142   1.812   1.625  0.8531  0.9343  0.6907
  464SOL    HW2 1574   1.047   1.914   1.708 -2.0901 -1.0945 -0.0216
  465SOL     OW 1575   3.246   0.906   1.956  0.0824  0.1664  0.6987
  465SOL    HW1 1576   3.266   0.847   1.878  2.8333  1.6955  0.1279
  465SOL    HW2 1577   3.320   0.898   2.023 -0.0496  2.0872  1.1244
  466SOL     OW 1578   0.977   1.326   0.697  0.2180  0.2363 -0.2327
  466SOL    HW1 1579   1.014   1.239   0.728  1.0445  1.2097  1.6268
  466SOL    HW2 1580   1.047   1.397   0.704 -0.6132  1.1938 -1.1582
  467SOL     OW 1581   1.235   3.357   0.735 -0.5578  0.1703 -0.4238
  467SOL    HW1 1582   1.297   3.297   0.786 -1.2950  0.4176  0.8124
  467SOL    HW2 1583   1.282   3.392   0.655 -0.1625 -2.2368 -1.3478
  468SOL     OW 1584   0.951   2.221   2.448 -0.3104  0.2810  0.3541
  468SOL    HW1 1585   0.988   2.303   2.407  0.1050 -0.7592 -1.4505
  468SOL    HW2 1586   1.023   2.153   2.458 -0.9265 -0.3689  0.5131
  469SOL     OW 1587   0.019   3.032   2.584  0.3263  0.3265  0.5019
  469SOL    HW1 1588  -0.053   3.096   2.557 -0.2795 -0.3575  0.4812
  469SOL    HW2 1589   0.032   2.965   2.511 -0.8784 -1.1597  1.5969
  470SOL     OW 1590   1.509   1.140   0.854 -0.1255 -0.4544  0.4037
  470SOL    HW1 1591   1.559   1.053   0.856 -0.7341 -0.8117  0.5474
  470SOL    HW2 1592   1.468   1.156   0.944 -0.4818 -0.3005  0.2160
  471SOL     OW 1593   2.479   1.581   0.306 -0.3162  0.1527 -0.7766
  471SOL    HW1 1594   2.558   1.519   0.304 -0.7423 -0.3805 -1.3467
  471SOL    HW2 1595   2.512   1.674   0.325  0.5177  0.0286 -1.5103
  472SOL     OW 1596   3.574   2.175   1.334  0.1346 -0.0949  0.0844
  472SOL    HW1 1597   3.653   2.196   1.391 -0.0317  0.7327  0.0135
  472SOL    HW2 1598   3.528   2.260   1.308 -0.1344 -0.4967 -0.7888
  473SOL     OW 1599   2.201   0.866   1.742 -0.5315  0.9457  0.3152
  473SOL    HW1 1600   2.162   0.842   1.653  0.5560 -1.7198  0.4641
  473SOL    HW2 1601   2.140   0.832   1.814 -0.2196  0.9223  0.5683
  474SOL     OW 1602   3.389   0.330   2.598  0.6448  0.1331  0.4566
  474SOL    HW1 1603   3.435   0.403   2.547  1.8583 -2.3658 -2.2801
  474SOL    HW2 1604   3.450   0.297   2.670  1.0153  0.2922  0.2194
  475SOL     OW 1605   1.771   0.985   1.748 -0.0646 -0.5457  0.1181
  475SOL    HW1 1606   1.689   1.015   1.797 -0.6441 -0.2411 -1.0193
  475SOL    HW2 1607   1.851   1.026   1.791 -0.7922  2.4370 -1.1381
  476SOL     OW 1608   2.630   2.212   2.957  0.5252  0.1976 -0.0987
  476SOL    HW1 1609   2.596   2.307   2.955  0.1727  0.0651 -0.6890
  476SOL    HW2 1610   2.729   2.213   2.952  0.5766  0.5621  0.7191
  477SOL     OW 1611   1.089   1.944   2.138  0.1214 -0.0328 -0.4052
  477SOL    HW1 1612   1.015   1.910   2.196 -1.4140 -1.9805 -3.2566
  477SOL    HW2 1613   1.161   1.875   2.131  0.6143  0.4567 -0.3385
  478SOL     OW 1614   1.437   3.536   1.558 -0.3740 -1.1558 -0.3832
  478SOL    HW1 1615   1.498   3.488   1.621 -1.4603 -0.4890  1.2274
  478SOL    HW2 1616   1.475   3.627   1.538  0.2972 -1.6035 -1.2675
  479SOL     OW 1617   1.639   0.224   0.822 -0.5068  0.5565 -0.7721
  479SOL    HW1 1618   1.594   0.291   0.882  0.3278  0.5292 -0.1034
  479SOL    HW2 1619   1.584   0.140   0.821 -0.6958  0.6677 -0.2969
  480SOL     OW 1620   1.491   1.786   0.069 -0.2153  0.1894 -0.0970
  480SOL    HW1 1621   1.450   1.848   0.136 -3.1205  0.0676 -1.5815
  480SOL    HW2 1622   1.589   1.803   0.063 -0.1870  1.5204  2.7153
  481SOL     OW 1623   2.409   1.772   1.131 -0.0520 -0.1717  0.4828
  481SOL    HW1 1624   2.462   1.828   1.067  2.2370 -2.8259 -0.1445
  481SOL    HW2 1625   2.393   1.825   1.214  0.9245  1.8027 -0.4991
  482SOL     OW 1626   3.003   1.618   2.108 -0.2253 -0.4384  0.7426
  482SOL    HW1 1627   2.973   1.537   2.056 -1.8208  0.6945 -0.2223
  482SOL    HW2 1628   3.006   1.595   2.205 -2.1278 -1.2866  0.6554
  483SOL     OW 1629   3.317   0.757   1.298 -0.0506 -0.7070  0.2789
  483SOL    HW1 1630   3.416   0.747   1.291  0.1127  0.6749  0.2837
  483SOL    HW2 1631   3.277   0.671   1.327  1.1093 -1.3977 -0.1150
  484SOL     OW 1632   0.752   1.514   2.176  0.2168  0.2293 -0.4183
  484SOL    HW1 1633   0.802   1.468   2.249 -1.4135 -0.6559  0.1874
  484SOL    HW2 1634   0.716   1.601   2.210  0.0672  0.1547 -0.3849
  485SOL     OW 1635   1.121   1.271   3.061 -0.5193 -0.0367 -0.5607
  485SOL    HW1 1636   1.185   1.344   3.036 -0.1978 -0.4805 -1.0326
  485SOL    HW2 1637   1.155   1.184   3.027 -0.5339 -0.5232  0.6317
  486SOL     OW 1638   0.048   1.877   1.629 -0.4343 -0.0355  0.3460
  486SOL    HW1 1639  -0.019   1.922   1.688 -0.3679  0.1459  0.2837
  486SOL    HW2 1640   0.139   1.893   1.665 -0.2243  1.6224 -0.7787
  487SOL     OW 1641   1.279   1.698   1.656  0.6119 -0.0641  0.4667
  487SOL    HW1 1642   1.336   1.742   1.726  1.5896 -1.3502  0.5139
  487SOL    HW2 1643   1.309   1.603   1.644 -0.9609 -0.5110 -0.1539
  488SOL     OW 1644   3.316   1.820   2.914  0.1619  0.4321 -0.3009
  488SOL    HW1 1645   3.292   1.780   2.825 -0.4817  0.7619 -0.2796
  488SOL    HW2 1646   3.415   1.814   2.927  0.2052 -0.0538 -0.8300
  489SOL     OW 1647   0.477   2.958   2.469  0.3030  0.3004 -0.6793
  489SOL    HW1 1648   0.572   2.966   2.440  0.5956 -0.9963 -0.1719
  489SOL    HW2 1649   0.454   3.036   2.528  0.5603  1.4285 -2.0259
  490SOL     OW 1650   2.891   2.761   3.192  0.2643 -0.2908 -0.1327
  490SOL    HW1 1651   2.842   2.683   3.233 -0.8495  0.1385 -0.6121
  490SOL    HW2 1652   2.835   2.843   3.203  0.2848 -0.0256 -1.8470
  491SOL     OW 1653   3.036   0.225   2.870  0.0751 -0.0294 -0.3318
  491SOL    HW1 1654   2.943   0.256   2.849  1.3767  2.9327 -2.3668
  491SOL    HW2 1655   3.034   0.127   2.890 -3.4751 -0.0238 -0.0245
  492SOL     OW 1656   2.997   2.981   1.648  0.0228  0.3928  0.5691
  492SOL    HW1 1657   2.964   2.981   1.553 -0.0468 -1.8168  0.5570
  492SOL    HW2 1658   3.095   3.004   1.648  0.4760 -1.3811 -0.2547
  493SOL     OW 1659   1.745   2.318   0.366  0.4018 -0.3600 -0.1238
  493SOL    HW1 1660   1.798   2.378   0.306 -0.1599  1.6696  1.3278
  493SOL    HW2 1661   1.661   2.291   0.319  0.2027  0.7947 -0.4731
  494SOL     OW 1662   2.729   2.322   0.203  0.1160 -0.1178  0.0653
  494SOL    HW1 1663   2.691   2.415   0.201  0.9134  0.2250 -1.8533
  494SOL    HW2 1664   2.725   2.287   0.296 -0.5573  1.6875  0.7720
  495SOL     OW 1665   1.110   0.015   0.458 -0.2361 -0.3695  0.0768
  495SOL    HW1 1666   1.054   0.080   0.407 -0.3507 -0.4191  0.1393
  495SOL    HW2 1667   1.067  -0.003   0.547 -0.9632 -1.6078 -0.4993
  496SOL     OW 1668   1.328   3.568   0.088 -0.1063 -0.3644  1.0517
  496SOL    HW1 1669   1.329   3.665   0.111 -1.6072 -0.8095  3.3334
  496SOL    HW2 1670   1.276   3.555   0.004  2.7172  1.0131 -1.1119
  497SOL     OW 1671   0.524   3.441   0.410 -0.5169  0.4450  0.4019
  497SOL    HW1 1672   0.595   3.509   0.428 -0.0685  0.2403 -0.5064
  497SOL    HW2 1673   0.534   3.408   0.316 -0.9383 -0.6304  0.7231
  498SOL     OW 1674   3.583   3.157   1.610 -0.2705 -0.2818  0.3264
  498SOL    HW1 1675   3.579   3.058   1.605  0.5740 -0.3462  0.6737
  498SOL    HW2 1676   3.675   3.185   1.638 -1.2539  0.4610  3.1346
  499SOL     OW 1677   0.899   1.255   2.884  0.6765 -0.7299 -0.6193
  499SOL    HW1 1678   0.868   1.337   2.836  1.4560 -0.5554 -0.8421
  499SOL    HW2 1679   0.950   1.283   2.965  0.6667 -1.0051 -0.5191
  500SOL     OW 1680   2.567   2.000   2.188  0.3508  0.0495 -0.5635
  500SOL    HW1 1681   2.555   2.092   2.227 -0.5222  0.0795 -0.8783
  500SOL    HW2 1682   2.634   1.950   2.242  1.2902  1.0714 -0.7298
  501SOL     OW 1683   0.133   2.668   0.151  0.5528  0.7673  0.1387
  501SOL    HW1 1684   0.209   2.651   0.213  1.1698 -0.1172 -0.8166
  501SOL    HW2 1685   0.090   2.755   0.173  0.7353  0.4549  1.8026
  502SOL     OW 1686   3.586   0.369   2.935  0.3313  0.0696 -0.0237
  502SOL    HW1 1687   3.647   0.397   3.010  0.9347 -0.0545 -0.4646
  502SOL    HW2 1688   3.495   0.352   2.972  0.0740  2.0600  0.3683
  503SOL     OW 1689   3.227   0.715   1.016  0.1886 -0.7295  0.4424
  503SOL    HW1 1690   3.196   0.750   1.104 -2.0988  1.7788 -1.2183
  503SOL    HW2 1691   3.314   0.759   0.991 -1.2072  1.7827 -0.2969
  504SOL     OW 1692   1.982   2.250   2.380 -0.2035  0.3005 -0.2716
  504SOL    HW1 1693   2.031   2.164   2.363  0.7561  0.0792  2.8586
  504SOL    HW2 1694   1.976   2.302   2.295  4.1554 -0.3875 -1.2690
  505SOL     OW 1695   0.810   2.366   2.774 -0.0721  0.3260  0.4565
  505SOL    HW1 1696   0.867   2.285   2.790 -0.0722  0.0635 -0.7288
  505SOL    HW2 1697   0.866   2.448   2.786  0.0583  0.1331  1.1759
  506SOL     OW 1698   2.236   0.376   2.229  0.1218  0.1194  0.4831
  506SOL    HW1 1699   2.163   0.403   2.291 -0.2259 -0.5859  0.3819
  506SOL    HW2 1700   2.324   0.387   2.276 -0.0687  0.5914  0.7385
  507SOL     OW 1701   0.632   0.347   0.516 -0.1087  0.3787  0.3840
  507SOL    HW1 1702   0.575   0.414   0.563 -0.5712 -1.3336  2.4477
  507SOL    HW2 1703   0.587   0.257   0.520  0.9045 -0.2719 -1.4853
  508SOL     OW 1704   0.208   0.746   1.803 -0.1589  0.0739  0.4004
  508SOL    HW1 1705   0.149   0.798   1.741 -0.3133 -0.8828 -0.2761
  508SOL    HW2 1706   0.161   0.661   1.828  0.5732 -0.2864  0.5581
  509SOL     OW 1707   3.397   2.981   0.970 -0.3056  0.0574  0.8090
  509SOL    HW1 1708   3.325   3.033   1.015 -0.8945  0.1054 -0.1686
  509SOL    HW2 1709   3.410   2.894   1.018 -0.2773  0.4929  1.6112
  510SOL     OW 1710   0.006   3.477   1.477 -0.2769  0.4322  0.1612
  510SOL    HW1 1711   0.094   3.452   1.437  0.0144  2.5916 -0.6623
  510SOL    HW2 1712   0.000   3.441   1.570  0.7642 -1.1136 -0.3237
  511SOL     OW 1713   1.565   3.377   1.223  0.0637 -0.6156 -0.4969
  511SOL    HW1 1714   1.491   3.437   1.193 -0.7370 -1.2596  0.1221
  511SOL    HW2 1715   1.604   3.331   1.144 -0.6854 -0.8016 -0.7712
  512SOL     OW 1716   1.062   2.453   1.478  0.7314  0.3896 -0.3888
  512SOL    HW1 1717   1.033   2.484   1.388  1.2691  3.6157  0.4027
  512SOL    HW2 1718   0.984   2.415   1.527  0.5505 -1.9425 -2.3213
  513SOL     OW 1719   3.338   1.467   1.600 -0.3012  0.0478 -0.3710
  513SOL    HW1 1720   3.384   1.479   1.689 -2.4020  0.9609  0.6659
  513SOL    HW2 1721   3.405   1.439   1.532  1.5890  0.3899  1.2599
  514SOL     OW 1722   1.127   0.779   1.458  0.2458 -0.2552 -0.2499
  514SOL    HW1 1723   1.070   0.814   1.384  0.3582  0.5684  0.0447
  514SOL    HW2 1724   1.220   0.764   1.424 -0.1775 -1.8640 -0.8038
  515SOL     OW 1725   1.787   3.046   2.941  0.2475 -0.2080 -0.1764
  515SOL    HW1 1726   1.835   3.120   2.987 -1.0369  1.1232 -0.8880
  515SOL    HW2 1727   1.846   3.008   2.869  0.2549  1.4555 -1.0991
  516SOL     OW 1728   2.028   1.985   1.694 -0.8636 -0.0588  0.1515
  516SOL    HW1 1729   2.099   2.054   1.678 -0.2522  0.1798  3.2935
  516SOL    HW2 1730   1.967   2.017   1.767 -0.9070 -2.5587  1.2953
  517SOL     OW 1731   1.299   3.477   2.175 -0.6317 -0.2053 -0.8270
  517SOL    HW1 1732   1.350   3.559   2.149 -1.4497  0.6377  0.0783
  517SOL    HW2 1733   1.264   3.432   2.093 -0.8240  0.7991 -1.3128
  518SOL     OW 1734   0.074   2.317   2.327 -0.0073 -0.1241 -0.2371
  518SOL    HW1 1735   0.079   2.244   2.395 -1.3046 -0.9538 -1.0021
  518SOL    HW2 1736   0.079   2.405   2.374  0.0182 -0.6906  0.8494
  519SOL     OW 1737   3.116   1.308   2.463  0.6728  0.2166  0.1700
  519SOL    HW1 1738   3.033   1.300   2.519  2.0759  0.6350  2.4591
  519SOL    HW2 1739   3.158   1.217   2.455  0.0274  0.0085 -0.9700
  520SOL     OW 1740   2.284   2.816   1.462 -0.1632 -0.4190 -0.0018
  520SOL    HW1 1741   2.264   2.718   1.463  2.4905 -1.0707 -0.9263
  520SOL    HW2 1742   2.219   2.863   1.403 -0.4152 -1.9090 -0.9578
  521SOL     OW 1743   2.254   3.304   3.196 -0.2645  0.4475 -0.1811
  521SOL    HW1 1744   2.260   3.275   3.100 -0.1306 -0.4170  0.0798
  521SOL    HW2 1745   2.333   3.360   3.219 -0.9321  1.7250 -0.9206
  522SOL     OW 1746   2.353   1.176   0.586 -0.2266 -0.1968  0.6681
  522SOL    HW1 1747   2.409   1.258   0.591  1.5373 -1.2634 -0.5313
  522SOL    HW2 1748   2.257   1.202   0.570 -0.0359  1.6444  2.2551
  523SOL     OW 1749   0.719   0.774   2.296 -0.1737  0.2328  0.0184
  523SOL    HW1 1750   0.658   0.853   2.297 -0.6725 -0.0447  3.5537
  523SOL    HW2 1751   0.667   0.692   2.322  1.5223 -0.0794  2.7958
  524SOL     OW 1752   1.767   0.754   2.934  0.3524 -0.5306 -0.1338
  524SOL    HW1 1753   1.729   0.701   2.858 -0.0698 -0.3229 -0.0666
  524SOL    HW2 1754   1.859   0.720   2.954  0.4626 -0.5997 -0.7277
  525SOL     OW 1755   0.339   2.665   2.196  0.6649 -0.0057 -0.5037
  525SOL    HW1 1756   0.405   2.593   2.216 -0.6428 -1.3277 -0.7507
  525SOL    HW2 1757   0.284   2.682   2.278 -0.1034 -0.4550 -0.9222
  526SOL     OW 1758   1.954   3.319   0.106  0.5009 -0.2863 -0.3270
  526SOL    HW1 1759   2.009   3.237   0.087  0.5615 -0.8222  1.8652
  526SOL    HW2 1760   1.871   3.316   0.050  0.9580 -1.3441 -0.9897
  527SOL     OW 1761   3.313   0.269   2.955  0.0748  0.2969  0.1848
  527SOL    HW1 1762   3.315   0.247   3.053  0.0591  0.4097  0.2107
  527SOL    HW2 1763   3.260   0.199   2.907 -0.4252  0.5577  0.3420
  528SOL     OW 1764   2.606   2.637   2.815 -0.4891 -0.3181  0.3872
  528SOL    HW1 1765   2.670   2.567   2.783 -0.4901  0.3317 -1.1082
  528SOL    HW2 1766   2.657   2.708   2.864 -0.0731  0.0946 -0.6206
  529SOL     OW 1767   2.257   0.523   1.243  0.3052  0.4500  0.5031
  529SOL    HW1 1768   2.334   0.498   1.184  1.6570 -1.5577  2.9281
  529SOL    HW2 1769   2.178   0.547   1.186  1.6425 -0.9007 -2.0845
  530SOL     OW 1770   3.192   3.526   1.837 -0.2744 -0.2859 -0.2397
  530SOL    HW1 1771   3.147   3.521   1.926 -0.1783 -0.5949 -0.2042
  530SOL    HW2 1772   3.163   3.447   1.782  1.3665 -1.3475  0.3316
  531SOL     OW 1773   0.655   0.913   0.847  0.2101 -0.4636  0.4992
  531SOL    HW1 1774   0.637   0.904   0.945  1.2441 -0.7063  0.6736
  531SOL    HW2 1775   0.600   0.846   0.797 -1.9098  1.0332  0.7145
  532SOL     OW 1776   3.384   3.176   3.328 -0.3750 -0.4184 -0.0613
  532SOL    HW1 1777   3.455   3.111   3.302  1.0426  0.8787  0.3926
  532SOL    HW2 1778   3.416   3.269   3.310 -0.9163  0.3461  2.5198
  533SOL     OW 1779   0.514   1.269   2.322 -0.0761  0.5765  1.0265
  533SOL    HW1 1780   0.557   1.327   2.391  2.6778  2.3039 -1.8518
  533SOL    HW2 1781   0.451   1.324   2.267  0.9940  0.3737 -0.4526
  534SOL     OW 1782   0.593   2.206   3.055  0.1973  0.5130 -0.2837
  534SOL    HW1 1783   0.671   2.144   3.047  0.2994  0.3396  1.4772
  534SOL    HW2 1784   0.625   2.295   3.089 -0.2732  0.6655 -0.2335
  535SOL     OW 1785   2.607   2.563   0.216  0.2712 -0.4669 -0.4938
  535SOL    HW1 1786   2.645   2.632   0.277 -1.2013  2.6807 -2.8475
  535SOL    HW2 1787   2.507   2.567   0.219  0.1411 -0.4526 -2.7623
  536SOL     OW 1788   0.731   1.719   1.229  0.3922 -0.7219  0.2141
  536SOL    HW1 1789   0.653   1.728   1.290  0.4523  2.7804 -0.0241
  536SOL    HW2 1790   0.815   1.717   1.283  0.3036 -0.9266  0.3462
  537SOL     OW 1791   1.789   1.103   2.793 -0.9126  0.4251  0.3822
  537SOL    HW1 1792   1.828   1.115   2.884 -1.9224  0.0077  0.8809
  537SOL    HW2 1793   1.832   1.024   2.749 -1.9192 -0.7098  1.3570
  538SOL     OW 1794   0.869   0.826   0.430 -0.1318  0.1635  0.3874
  538SOL    HW1 1795   0.896   0.796   0.339 -0.1024 -3.1541  1.3380
  538SOL    HW2 1796   0.770   0.815   0.440 -0.0421 -0.1732  0.9493
  539SOL     OW 1797   2.856   2.662   2.247  0.6535  0.0687 -0.4462
  539SOL    HW1 1798   2.817   2.702   2.329  0.2146  0.4157 -0.8155
  539SOL    HW2 1799   2.845   2.563   2.250 -0.1773  0.1474 -0.4893
  540SOL     OW 1800   3.059   0.996   1.752 -0.2117 -0.1191 -0.3951
  540SOL    HW1 1801   3.122   0.982   1.828 -1.5116 -0.2352  0.6934
  540SOL    HW2 1802   3.059   0.915   1.694  0.3422 -0.2712 -0.1891
  541SOL     OW 1803   2.548   2.368   3.383 -0.1461  0.0614 -0.0218
  541SOL    HW1 1804   2.627   2.372   3.322 -0.6042 -2.4004 -0.9319
  541SOL    HW2 1805   2.470   2.412   3.338 -0.0231 -0.1341 -0.4355
  542SOL     OW 1806   1.735   2.567   2.457 -0.0823 -0.1653  0.3803
  542SOL    HW1 1807   1.711   2.470   2.456  4.1217 -1.4389  1.8148
  542SOL    HW2 1808   1.762   2.593   2.550  0.6163  1.8902 -0.3431
  543SOL     OW 1809   1.805   0.324   2.721 -0.3850 -0.3099  0.0589
  543SOL    HW1 1810   1.795   0.230   2.689 -1.7372 -0.0109 -0.4536
  543SOL    HW2 1811   1.902   0.348   2.722 -0.1553 -0.9925 -1.9123
  544SOL     OW 1812   1.688   1.253   0.496  0.1460 -0.4534 -0.0953
  544SOL    HW1 1813   1.678   1.340   0.544  0.6342  0.0661 -0.9142
  544SOL    HW2 1814   1.755   1.263   0.423  1.2469 -1.8974  0.6731
  545SOL     OW 1815   1.873   3.317   2.176  0.2468  0.3575  0.1302
  545SOL    HW1 1816   1.774   3.330   2.169 -0.0128 -1.2458  0.5325
  545SOL    HW2 1817   1.898   3.305   2.273  0.9334  1.3203  0.0931
  546SOL     OW 1818   1.707   2.032   2.091  0.1083  0.1117  0.5262
  546SOL    HW1 1819   1.778   1.993   2.150 -0.7958  0.1754  1.7036
  546SOL    HW2 1820   1.687   2.125   2.121  1.3702  1.1089 -1.4801
  547SOL     OW 1821   2.757   3.030   0.971  0.3920 -0.9097 -0.2771
  547SOL    HW1 1822   2.759   3.089   1.051  1.4377 -1.1772 -0.0936
  547SOL    HW2 1823   2.707   3.075   0.898  1.0912  0.1543 -0.1094
  548SOL     OW 1824   1.228   0.216   0.978 -0.1301  0.1823  0.4759
  548SOL    HW1 1825   1.243   0.136   1.036  1.4354  0.1313  0.0419
  548SOL    HW2 1826   1.228   0.188   0.882 -1.8068  0.4047  0.3752
  549SOL     OW 1827   1.364   1.533   2.523 -0.4031  0.3657  0.2301
  549SOL    HW1 1828   1.310   1.585   2.457  1.3828  1.5060 -0.4183
  549SOL    HW2 1829   1.348   1.570   2.615 -1.1131  0.3349  0.1230
  550SOL     OW 1830   2.209   1.074   3.474  0.0006 -0.4013 -0.7186
  550SOL    HW1 1831   2.216   0.999   3.539 -1.4219 -0.8273 -1.0399
  550SOL    HW2 1832   2.124   1.067   3.423  0.5372  0.5861 -1.8220
  551SOL     OW 1833   2.062   2.189   0.436 -0.0437 -0.2307  0.6303
  551SOL    HW1 1834   1.987   2.196   0.371 -0.2160  0.2342  0.8716
  551SOL    HW2 1835   2.029   2.148   0.521 -0.3687  1.2129  1.2323
  552SOL     OW 1836   0.948   3.585   3.227  0.1590 -0.1777  0.1333
  552SOL    HW1 1837   0.989   3.676   3.216 -0.2804 -0.0542 -0.5624
  552SOL    HW2 1838   0.980   3.545   3.313  2.3643 -0.4350 -0.7606
  553SOL     OW 1839   1.327   1.641   2.766  0.0883 -0.0682 -0.6392
  553SOL    HW1 1840   1.270   1.700   2.823 -1.0207 -0.7941 -0.9556
  553SOL    HW2 1841   1.339   1.553   2.811 -1.6951 -1.0379 -1.9264
  554SOL     OW 1842   2.708   3.488   0.091  0.1464  0.4666 -0.3454
  554SOL    HW1 1843   2.786   3.530   0.137 -0.5074  0.8318  0.4712
  554SOL    HW2 1844   2.714   3.506  -0.007  0.9939  0.6281 -0.2730
  555SOL     OW 1845   3.183   0.196   0.020 -0.4180  0.4560  0.2588
  555SOL    HW1 1846   3.235   0.208   0.104 -0.1546  0.0472  0.1575
  555SOL    HW2 1847   3.160   0.286  -0.018  0.6809  0.6530  0.0259
  556SOL     OW 1848   2.740   0.800   0.309 -0.2178  0.3383 -0.5553
  556SOL    HW1 1849   2.668   0.743   0.269 -1.7092  1.4681  0.4330
  556SOL    HW2 1850   2.789   0.747   0.378 -0.6586 -0.1761 -0.6283
  557SOL     OW 1851   1.472   0.693   0.295 -0.3079 -0.2104  0.3797
  557SOL    HW1 1852   1.526   0.776   0.283 -0.5459 -0.1357 -0.1856
  557SOL    HW2 1853   1.388   0.715   0.345 -1.1962  0.2352 -1.2278
  558SOL     OW 1854   0.424   0.131   0.717 -0.5258 -0.0968  0.6597
  558SOL    HW1 1855   0.357   0.077   0.666 -0.4359 -0.1225  0.5691
  558SOL    HW2 1856   0.493   0.070   0.756  0.9312  0.1402 -1.4222
  559SOL     OW 1857   2.151   0.828   2.792 -0.0160  0.4149 -0.1358
  559SOL    HW1 1858   2.100   0.846   2.876 -0.0797  0.4601 -0.1833
  559SOL    HW2 1859   2.147   0.909   2.733 -1.2533 -0.1176 -0.8359
  560SOL     OW 1860   0.556   3.287   2.462  0.1377  0.0461 -0.1455
  560SOL    HW1 1861   0.465   3.254   2.437  0.0454  0.7527 -0.7726
  560SOL    HW2 1862   0.621   3.211   2.457 -0.6555 -0.8107  1.7286
  561SOL     OW 1863   0.771   2.774   1.225  0.1765  0.0067  0.2977
  561SOL    HW1 1864   0.792   2.859   1.274 -0.2251  1.5410 -2.0312
  561SOL    HW2 1865   0.806   2.781   1.132 -1.0908 -1.8689 -0.3696
  562SOL     OW 1866   1.056   0.134   0.138 -0.0464 -0.3910  0.6948
  562SOL    HW1 1867   1.147   0.162   0.171 -0.3769  0.6327  0.7564
  562SOL    HW2 1868   0.993   0.210   0.148 -1.1402 -1.3610  1.4685
  563SOL     OW 1869   0.009   3.114   0.843  0.1770 -0.3268 -0.0992
  563SOL    HW1 1870   0.056   3.030   0.817 -3.2023 -2.0147 -1.4831
  563SOL    HW2 1871  -0.061   3.092   0.911  0.2762  1.7201  0.7325
  564SOL     OW 1872   2.775   2.701   1.984  0.5456  0.2988 -0.2921
  564SOL    HW1 1873   2.679   2.690   1.957  0.0416  2.2141  0.5401
  564SOL    HW2 1874   2.786   2.672   2.079  0.8483 -0.1385 -0.4579
  565SOL     OW 1875   0.383   0.367   3.563 -0.3294  0.1050  0.1082
  565SOL    HW1 1876   0.336   0.443   3.518  1.1064  1.0229  0.0860
  565SOL    HW2 1877   0.365   0.370   3.661  1.3701  1.7831  0.4244
  566SOL     OW 1878   0.584   3.273   1.752 -0.0888 -0.1586  0.1994
  566SOL    HW1 1879   0.529   3.319   1.821  1.6506  2.4885 -0.0375
  566SOL    HW2 1880   0.681   3.277   1.778  0.2079 -4.3507  0.4439
  567SOL     OW 1881   1.272   2.809   1.104  0.3175  0.2545 -0.0908
  567SOL    HW1 1882   1.303   2.904   1.099 -0.1122  0.4320  0.5727
  567SOL    HW2 1883   1.261   2.783   1.200 -1.5863  0.2019 -0.2924
  568SOL     OW 1884   2.183   0.375   0.198  0.2422  0.1756  0.1383
  568SOL    HW1 1885   2.223   0.463   0.224 -0.1961  0.4477 -0.0941
  568SOL    HW2 1886   2.186   0.313   0.276  0.4713  0.4251  0.3296
  569SOL     OW 1887   0.626   2.756   2.625  0.0648 -0.7229  0.1815
  569SOL    HW1 1888   0.613   2.791   2.718 -0.3819  0.3052 -0.2521
  569SOL    HW2 1889   0.559   2.799   2.565  0.7528 -0.9030 -0.7300
  570SOL     OW 1890   1.610   0.921   0.257 -0.0655  0.4837 -0.5721
  570SOL    HW1 1891   1.596   0.990   0.186 -0.3955  0.7104 -0.2912
  570SOL    HW2 1892   1.581   0.958   0.345 -0.8149 -0.2249 -0.5061
  571SOL     OW 1893   1.960   2.845   3.194 -0.5196 -0.1323  0.2834
  571SOL    HW1 1894   2.011   2.761   3.175 -0.9379 -0.2328 -0.4140
  571SOL    HW2 1895   1.874   2.844   3.143 -0.2854  0.9598 -0.1630
  572SOL     OW 1896   2.086   3.540   3.561  0.4454  0.2136  0.1021
  572SOL    HW1 1897   2.011   3.481   3.590 -0.1246  1.2254  0.7716
  572SOL    HW2 1898   2.057   3.594   3.482 -0.8185  2.9799  2.2605
  573SOL     OW 1899   0.770   0.667   1.211 -0.0619 -0.1412  0.6498
  573SOL    HW1 1900   0.857   0.712   1.226  0.5698 -0.8496 -0.6696
  573SOL    HW2 1901   0.705   0.734   1.174  0.0686  0.2727  1.1588
  574SOL     OW 1902   2.473   2.209   2.561  0.1525  0.1213  0.6207
  574SOL    HW1 1903   2.539   2.134   2.571 -1.1657 -1.0180  1.2171
  574SOL    HW2 1904   2.403   2.200   2.632 -0.2389  1.7329  0.4682
  575SOL     OW 1905   1.644   1.460   0.130 -0.3214  0.0874  0.0794
  575SOL    HW1 1906   1.557   1.452   0.177 -0.4177 -0.3499 -0.1703
  575SOL    HW2 1907   1.628   1.468   0.031 -0.1702  1.8943  0.1622
  576SOL     OW 1908   3.597   1.704   2.943  0.0654  0.3479 -0.9400
  576SOL    HW1 1909   3.568   1.610   2.962  1.3141  0.0338 -0.5076
  576SOL    HW2 1910   3.627   1.746   3.028  2.5010  0.0687 -1.6005
  577SOL     OW 1911   3.035   0.328   3.154 -0.5279 -0.0320 -0.1557
  577SOL    HW1 1912   3.030   0.316   3.055 -1.2534 -1.0758 -0.0048
  577SOL    HW2 1913   3.127   0.306   3.185 -0.1047  0.9332 -0.6554
  578SOL     OW 1914   0.461   3.195   0.529 -0.3550 -0.0454 -0.0077
  578SOL    HW1 1915   0.471   3.283   0.481 -1.5028 -0.3414 -0.8429
  578SOL    HW2 1916   0.539   3.137   0.508  1.2343  1.2907  1.7879
  579SOL     OW 1917   1.143   1.736   2.979  1.3269 -0.1100  0.5065
  579SOL    HW1 1918   1.183   1.828   2.970  0.2020  0.6030  2.2004
  579SOL    HW2 1919   1.194   1.684   3.047  2.3723 -1.0175 -0.9334
  580SOL     OW 1920   0.611   0.805   0.411 -0.2065  0.2149 -0.2454
  580SOL    HW1 1921   0.568   0.745   0.343  0.5162 -0.6179  0.0036
  580SOL    HW2 1922   0.590   0.900   0.389 -0.2081 -0.0510 -1.4956
  581SOL     OW 1923   1.564   2.582   0.565  0.3389  0.1989 -0.1874
  581SOL    HW1 1924   1.606   2.640   0.633  0.8500 -0.7411  0.3227
  581SOL    HW2 1925   1.487   2.532   0.606  0.2292  0.1262 -0.4726
  582SOL     OW 1926   1.268   0.669   1.017  0.4451  0.0766  0.6512
  582SOL    HW1 1927   1.347   0.623   0.978 -0.6569 -1.9164  0.6069
  582SOL    HW2 1928   1.208   0.600   1.059 -1.3023  1.4965  0.6101
  583SOL     OW 1929   1.444   1.167   1.118  0.0777  0.3956  0.3334
  583SOL    HW1 1930   1.514   1.169   1.189 -0.6101 -0.7403  1.0606
  583SOL    HW2 1931   1.369   1.108   1.146 -0.4983  0.4020 -1.0805
  584SOL     OW 1932   2.238   2.819   2.812  0.1122  0.4310  0.9604
  584SOL    HW1 1933   2.273   2.727   2.828  1.9107  0.7379 -0.8071
  584SOL    HW2 1934   2.293   2.864   2.742 -3.4668  1.1850 -1.6848
  585SOL     OW 1935   2.989   0.596   2.972  0.1914  0.0383  0.1163
  585SOL    HW1 1936   2.967   0.608   3.069 -1.1445  0.1514 -0.1765
  585SOL    HW2 1937   3.087   0.608   2.959  0.5488 -1.0347  1.6057
  586SOL     OW 1938   1.090   1.241   3.550 -0.1004 -0.1033 -0.4017
  586SOL    HW1 1939   1.019   1.279   3.608  0.5118  0.6250 -0.1170
  586SOL    HW2 1940   1.177   1.244   3.598  0.2173 -0.4963 -0.9436
  587SOL     OW 1941   0.002   1.977   3.079 -0.4485 -0.5341 -0.9629
  587SOL    HW1 1942  -0.084   2.018   3.047 -0.4330 -1.2109 -1.9219
  587SOL    HW2 1943   0.077   2.043   3.065 -0.8747  0.2984  0.4524
  588SOL     OW 1944   2.895   0.733   1.020  0.0548 -0.3338  0.1837
  588SOL    HW1 1945   2.964   0.662   1.007  1.6357  0.9182  1.4287
  588SOL    HW2 1946   2.937   0.823   1.008 -1.6212  0.4593 -0.0950
  589SOL     OW 1947   1.300   0.227   0.182 -0.3614  0.2743  0.1138
  589SOL    HW1 1948   1.371   0.268   0.239  1.7670 -0.3676 -1.9128
  589SOL    HW2 1949   1.295   0.276   0.095 -2.0211 -0.0732 -0.0254
  590SOL     OW 1950   0.676   1.286   0.013 -0.7222 -0.4354  0.0321
  590SOL    HW1 1951   0.694   1.278  -0.085 -1.3625  2.6666 -0.4446
  590SOL    HW2 1952   0.760   1.316   0.059 -1.1956  1.2092 -0.1181
  591SOL     OW 1953   3.319   3.028   0.702  0.2044 -0.5794  0.6071
  591SOL    HW1 1954   3.378   2.979   0.766  0.6959  1.6267  1.9486
  591SOL    HW2 1955   3.242   3.066   0.752  0.3065  0.7318 -0.2002
  592SOL     OW 1956   0.081   2.591   2.371  0.0574  0.0712  0.0555
  592SOL    HW1 1957   0.154   2.645   2.411 -1.9500  1.0682  2.6438
  592SOL    HW2 1958  -0.006   2.613   2.416 -1.8157 -1.4052 -2.4994
  593SOL     OW 1959   3.573   0.555   0.673 -0.5814 -0.1881  0.0773
  593SOL    HW1 1960   3.594   0.578   0.768 -0.2079  1.6043 -0.3956
  593SOL    HW2 1961   3.494   0.609   0.643  1.0930  1.5767 -1.4803
  594SOL     OW 1962   3.314   2.968   0.134 -0.1118  0.6248 -0.3124
  594SOL    HW1 1963   3.308   3.066   0.149 -0.9953  0.3776  1.1919
  594SOL    HW2 1964   3.288   2.920   0.218  1.0497 -0.8987 -0.7673
  595SOL     OW 1965   1.502   3.433   3.535  0.3347  0.3393  0.5910
  595SOL    HW1 1966   1.447   3.497   3.588 -1.2190 -0.5717  0.1540
  595SOL    HW2 1967   1.452   3.408   3.452  2.0860  0.6183 -0.5877
  596SOL     OW 1968   0.700   3.037   0.496  0.0125  0.6649  0.4878
  596SOL    HW1 1969   0.642   3.039   0.415  0.3133 -2.1869  0.0982
  596SOL    HW2 1970   0.785   3.087   0.478 -0.3768  0.9665 -0.5485
  597SOL     OW 1971   0.794   1.060   1.498  0.2332 -0.4202 -0.0192
  597SOL    HW1 1972   0.862   1.053   1.571  1.2186 -0.1521 -0.8835
  597SOL    HW2 1973   0.791   1.155   1.465 -0.0622 -0.5759 -0.4492
  598SOL     OW 1974   2.355   2.578   2.866  0.0196 -0.2081  0.0953
  598SOL    HW1 1975   2.340   2.535   2.955 -1.0454 -0.8677 -0.3892
  598SOL    HW2 1976   2.448   2.615   2.863 -0.3373  1.0204  1.9783
  599SOL     OW 1977   1.240   0.719   0.416 -0.2638  0.2757 -0.1140
  599SOL    HW1 1978   1.185   0.643   0.380  2.5175 -1.6012 -0.7301
  599SOL    HW2 1979   1.235   0.719   0.516 -0.3944 -0.6527 -0.1089
  600SOL     OW 1980   3.506   2.096   1.829  0.6434 -0.3772 -0.0471
  600SOL    HW1 1981   3.408   2.107   1.841  0.8743 -0.6607  2.6551
  600SOL    HW2 1982   3.543   2.043   1.905  2.9848  0.1693 -0.7196
  601SOL     OW 1983   0.415   0.658   2.157  0.0243 -0.6187  0.1813
  601SOL    HW1 1984   0.454   0.633   2.246 -2.6906 -1.5345  1.2053
  601SOL    HW2 1985   0.488   0.657   2.089  2.4023  0.9709  2.4809
  602SOL     OW 1986   2.836   3.444   3.112  0.1039  0.3006  0.4161
  602SOL    HW1 1987   2.748   3.491   3.106  0.0437  0.2561  0.8950
  602SOL    HW2 1988   2.850   3.413   3.206  2.3450  3.5723  1.3376
  603SOL     OW 1989   1.033   2.130   0.530  0.5301  0.1165 -0.5617
  603SOL    HW1 1990   0.981   2.121   0.445 -0.2560 -1.5149  0.0517
  603SOL    HW2 1991   0.995   2.205   0.584  1.8845  2.0818 -2.1695
  604SOL     OW 1992   2.238   1.254   0.197  0.6473 -0.1668 -0.6590
  604SOL    HW1 1993   2.323   1.295   0.162 -0.9683  1.4220 -3.0752
  604SOL    HW2 1994   2.185   1.324   0.244 -0.4896 -0.3838 -1.5602
  605SOL     OW 1995   1.864   2.182   2.791 -0.3331  0.1119 -0.1796
  605SOL    HW1 1996   1.902   2.182   2.698  0.5456 -1.3340  0.1428
  605SOL    HW2 1997   1.823   2.271   2.810 -1.1418  0.2241 -2.1901
  606SOL     OW 1998   0.806   0.075   2.778 -0.0588 -0.5026  0.5511
  606SOL    HW1 1999   0.813   0.015   2.699  1.5631  0.4174 -0.0583
  606SOL    HW2 2000   0.838   0.027   2.860  1.7160 -0.3538 -0.0188
  607SOL     OW 2001   2.554   0.616   0.238 -0.3384  0.0713 -0.1327
  607SOL    HW1 2002   2.560   0.592   0.141 -2.1021  0.6375 -0.4101
  607SOL    HW2 2003   2.458   0.618   0.266  0.1264  0.2487  1.5536
  608SOL     OW 2004   1.432   2.128   3.492  0.3742 -0.0444  0.2140
  608SOL    HW1 2005   1.391   2.038   3.478  1.2642 -0.0623 -3.1469
  608SOL    HW2 2006   1.372   2.198   3.452  1.7795  0.2980 -1.4098
  609SOL     OW 2007   1.448   1.077   2.727  1.1600 -1.0424 -0.0713
  609SOL    HW1 2008   1.469   1.163   2.681 -1.1461 -0.0916  0.5151
  609SOL    HW2 2009   1.384   1.025   2.671  1.1969 -1.5748  0.3734
  610SOL     OW 2010   2.345   2.957   1.084  0.4146  0.3778  0.3361
  610SOL    HW1 2011   2.370   3.054   1.075  0.5093  0.3821  0.6337
  610SOL    HW2 2012   2.415   2.901   1.041 -0.5173  0.5100 -1.4269
  611SOL     OW 2013   2.186   0.364   1.709 -0.0001 -0.2667 -0.1382
  611SOL    HW1 2014   2.219   0.450   1.748 -3.1384 -0.2048  2.8720
  611SOL    HW2 2015   2.127   0.384   1.630  0.2377  0.2174 -0.1978
  612SOL     OW 2016   2.155   1.355   3.484  0.4871  0.0836  0.0080
  612SOL    HW1 2017   2.167   1.255   3.489  1.2205  0.1289 -0.6861
  612SOL    HW2 2018   2.225   1.399   3.541  1.1559  0.2310 -0.8955
  613SOL     OW 2019   1.925   0.015   3.312 -0.0364 -0.1135  0.0944
  613SOL    HW1 2020   1.975  -0.016   3.231  2.3198  0.8315  1.1248
  613SOL    HW2 2021   1.844  -0.043   3.324  1.0058 -1.9999 -1.3755
  614SOL     OW 2022   3.265   1.028   2.824  0.2318  0.0420  0.1916
  614SOL    HW1 2023   3.304   0.936   2.812  1.1919  0.4664 -0.0397
  614SOL    HW2 2024   3.263   1.050   2.921  1.2666  0.2890  0.1738
  615SOL     OW 2025   3.433   0.460   1.768  0.2020 -0.5307 -0.2483
  615SOL    HW1 2026   3.409   0.367   1.741 -1.3359  0.1459 -1.3557
  615SOL    HW2 2027   3.501   0.496   1.703 -0.6139 -0.2486 -0.9666
  616SOL     OW 2028   2.689   1.383   0.569  0.3810 -0.6475 -0.6293
  616SOL    HW1 2029   2.731   1.406   0.657  0.7557  0.5843 -1.1139
  616SOL    HW2 2030   2.632   1.459   0.538  2.3834  0.1294 -2.7130
  617SOL     OW 2031   3.445   0.503   0.182 -0.0506 -0.5571  0.1839
  617SOL    HW1 2032   3.432   0.429   0.248 -0.4244 -1.6624 -1.0838
  617SOL    HW2 2033   3.415   0.590   0.223  1.9567 -0.7711  2.3016
  618SOL     OW 2034   3.192   3.416   0.576 -0.2011 -0.0749  0.1892
  618SOL    HW1 2035   3.258   3.366   0.632 -0.4205 -2.1187 -1.2339
  618SOL    HW2 2036   3.206   3.392   0.480 -1.8828  0.8025 -0.3185
  619SOL     OW 2037   3.495   0.814   0.975  0.1913  0.1973 -0.1639
  619SOL    HW1 2038   3.539   0.900   0.948  1.3127 -0.0722  0.7293
  619SOL    HW2 2039   3.549   0.737   0.939 -1.0721 -0.1582 -1.3740
  620SOL     OW 2040   2.034   1.982   2.212  0.3885  0.4503  0.4051
  620SOL    HW1 2041   2.064   2.056   2.151  0.2814 -0.3188 -0.6049
  620SOL    HW2 2042   1.988   1.911   2.158  1.7339 -1.0364  1.1222
  621SOL     OW 2043   1.676   0.505   0.556 -0.3861 -0.9093  0.0510
  621SOL    HW1 2044   1.638   0.476   0.643  1.9381 -1.2150  1.0389
  621SOL    HW2 2045   1.688   0.604   0.557 -0.4639 -0.8990  0.0140
  622SOL     OW 2046   0.384   1.488   2.220  0.3930  0.3297 -0.1098
  622SOL    HW1 2047   0.426   1.578   2.207 -1.8496  1.5862  0.8808
  622SOL    HW2 2048   0.297   1.499   2.267 -0.6100 -2.2559 -1.2026
  623SOL     OW 2049   0.787   3.289   0.162 -0.2895 -0.0639 -0.3581
  623SOL    HW1 2050   0.824   3.221   0.226 -2.6582 -1.0031  0.1357
  623SOL    HW2 2051   0.834   3.376   0.175  4.6507 -1.9813 -2.6986
  624SOL     OW 2052   2.301   0.013   2.689  0.0543  0.0901  0.2894
  624SOL    HW1 2053   2.247   0.072   2.630 -0.6952  1.5462  2.3315
  624SOL    HW2 2054   2.397   0.013   2.658 -0.6060 -0.6491 -1.9378
  625SOL     OW 2055   1.624   2.205   3.182 -0.3552  0.3062  0.2279
  625SOL    HW1 2056   1.559   2.130   3.169 -0.6945  0.6238  0.0655
  625SOL    HW2 2057   1.715   2.175   3.153 -0.2684 -0.3842  1.1252
  626SOL     OW 2058   2.221   1.878   0.944  0.1894 -0.3816 -0.7980
  626SOL    HW1 2059   2.267   1.967   0.935 -0.1604  0.0016  0.9513
  626SOL    HW2 2060   2.262   1.827   1.019 -1.4475 -0.5140  0.0581
  627SOL     OW 2061   2.566   2.829   0.984  0.3169 -0.1448  0.0737
  627SOL    HW1 2062   2.646   2.889   0.987 -0.3590  0.7996 -0.1991
  627SOL    HW2 2063   2.588   2.743   1.030  1.1914  0.4642  0.8464
  628SOL     OW 2064   2.320   1.535   2.920 -0.1183 -0.1960 -0.3026
  628SOL    HW1 2065   2.272   1.563   3.003 -2.2465  2.7822 -2.3154
  628SOL    HW2 2066   2.331   1.436   2.920 -2.7577 -0.6191  2.1294
  629SOL     OW 2067   2.895   2.303   0.798 -0.5021  0.5023  0.8299
  629SOL    HW1 2068   2.979   2.296   0.851 -0.8641  1.1231  1.5016
  629SOL    HW2 2069   2.851   2.213   0.793 -1.1345  0.6662  2.7285
  630SOL     OW 2070   3.404   3.299   0.728  0.0363 -0.0395  0.3176
  630SOL    HW1 2071   3.436   3.315   0.822  2.5093 -1.2585 -0.2171
  630SOL    HW2 2072   3.392   3.201   0.713  1.2326 -0.0107 -1.0514
  631SOL     OW 2073   3.081   3.109   3.422 -0.7643 -0.4727 -0.2193
  631SOL    HW1 2074   3.159   3.173   3.419  0.4828 -1.6795  2.6100
  631SOL    HW2 2075   3.100   3.031   3.362 -1.1393  0.5369 -1.7125
  632SOL     OW 2076   1.354   1.421   2.926  0.1358 -0.5696  0.6046
  632SOL    HW1 2077   1.435   1.377   2.885  0.1813 -0.2439  0.3404
  632SOL    HW2 2078   1.379   1.459   3.015  0.2243 -0.6465  0.6127
  633SOL     OW 2079   0.060   2.834   1.844  0.5682 -0.2835  0.8138
  633SOL    HW1 2080   0.046   2.762   1.913  1.1824 -1.3118 -0.1019
  633SOL    HW2 2081   0.138   2.890   1.870  1.8225 -1.6651  0.2006
  634SOL     OW 2082   0.839   2.003   1.556 -0.2222 -0.1672 -0.0151
  634SOL    HW1 2083   0.866   2.062   1.479  0.5842 -1.0236 -0.4141
  634SOL    HW2 2084   0.913   1.939   1.575 -0.5113 -0.1134  1.3478
  635SOL     OW 2085   1.907   2.420   1.684 -0.3672 -0.2459  0.0297
  635SOL    HW1 2086   1.881   2.356   1.611 -1.1220 -0.2442  0.2845
  635SOL    HW2 2087   1.857   2.506   1.671 -0.3714 -0.1842  0.4506
  636SOL     OW 2088   3.100   2.040   3.468  0.1945  0.3594  0.0219
  636SOL    HW1 2089   3.195   2.072   3.475  0.0600  0.9330 -0.5903
  636SOL    HW2 2090   3.071   2.003   3.556  0.7665  0.8178  0.4130
  637SOL     OW 2091   1.180   0.644   2.521 -0.2773 -0.1984  0.4937
  637SOL    HW1 2092   1.222   0.567   2.473 -0.9435 -0.0065 -0.4126
  637SOL    HW2 2093   1.172   0.622   2.619 -1.1953 -1.6046  0.1221
  638SOL     OW 2094   1.519   3.093   0.073 -0.0549  0.2286 -0.4393
  638SOL    HW1 2095   1.563   3.178   0.047 -0.1906  0.7988  1.1514
  638SOL    HW2 2096   1.583   3.036   0.125 -0.1175 -0.4600 -1.0808
  639SOL     OW 2097   3.097   1.989   1.067 -0.4841  0.1207 -0.2104
  639SOL    HW1 2098   3.168   1.957   1.129  0.1699 -0.0141 -1.0188
  639SOL    HW2 2099   3.112   1.950   0.976 -1.1699  0.6687 -0.5710
  640SOL     OW 2100   3.302   0.544   2.952  0.4421  0.1922  0.5355
  640SOL    HW1 2101   3.299   0.585   2.861  1.5573 -1.0846 -0.1037
  640SOL    HW2 2102   3.285   0.446   2.944 -2.3354  0.4320  2.0439
  641SOL     OW 2103   2.153   3.081   1.962 -0.2161  0.0604  0.3130
  641SOL    HW1 2104   2.224   3.016   1.936 -0.2539 -0.0431  0.4660
  641SOL    HW2 2105   2.113   3.053   2.049  0.2192  0.6499  0.7142
  642SOL     OW 2106   2.134   1.835   3.276 -0.2947  0.1548  0.6441
  642SOL    HW1 2107   2.066   1.818   3.347 -1.1850  0.8263 -0.0316
  642SOL    HW2 2108   2.110   1.783   3.194 -0.4864  1.0671  0.1121
  643SOL     OW 2109   3.503   0.359   1.427  0.0752 -0.2847  0.0405
  643SOL    HW1 2110   3.550   0.270   1.429 -0.4902 -0.5915 -0.1893
  643SOL    HW2 2111   3.547   0.420   1.492  0.9698 -0.4813 -0.3630
  644SOL     OW 2112   1.794   0.081   2.626 -0.2223  0.1560  0.2367
  644SOL    HW1 2113   1.730   0.021   2.674 -0.4073 -0.1126 -0.3302
  644SOL    HW2 2114   1.858   0.026   2.574 -0.0342  0.4393  0.1650
  645SOL     OW 2115   0.425   2.673   1.097 -0.6484  0.1896  0.1286
  645SOL    HW1 2116   0.408   2.771   1.084 -0.5436  0.3369  1.0568
  645SOL    HW2 2117   0.345   2.622   1.065 -0.7596  0.5832 -0.2369
  646SOL     OW 2118   0.270   1.938   2.056 -0.3310  0.0809  0.0169
  646SOL    HW1 2119   0.311   1.987   2.132 -1.3247  0.3404  0.4050
  646SOL    HW2 2120   0.314   1.849   2.046  0.2368  0.3023  0.4829
  647SOL     OW 2121   3.085   2.688   0.839 -0.0993  0.4179 -0.2562
  647SOL    HW1 2122   3.037   2.745   0.906  1.9144  0.6586  1.0956
  647SOL    HW2 2123   3.126   2.610   0.886 -1.9357 -1.6683 -1.9194
  648SOL     OW 2124   0.998   2.570   2.708  0.1109  0.5845 -0.6663
  648SOL    HW1 2125   1.078   2.581   2.767 -1.1002 -1.1964  1.4392
  648SOL    HW2 2126   1.029   2.548   2.615  2.1185 -1.7652  0.4492
  649SOL     OW 2127   0.047   2.725   0.942 -0.5247  0.2343  0.1701
  649SOL    HW1 2128   0.105   2.648   0.970 -0.1245  0.8565  1.1127
  649SOL    HW2 2129  -0.039   2.722   0.994 -0.3524  0.6205  0.4861
  650SOL     OW 2130   2.468   0.979   0.439  0.1420 -0.4574  0.0019
  650SOL    HW1 2131   2.567   0.971   0.453  0.1405  0.9265  0.9439
  650SOL    HW2 2132   2.435   1.062   0.484 -1.6605 -1.5619  0.8252
  651SOL     OW 2133   1.831   2.271   3.399 -0.4854 -0.3259 -0.0688
  651SOL    HW1 2134   1.877   2.250   3.313 -0.3423  0.3801 -0.1751
  651SOL    HW2 2135   1.782   2.190   3.431 -0.1952 -0.7169 -0.5973
  652SOL     OW 2136   3.170   0.329   0.842 -0.2743  0.0871 -0.4355
  652SOL    HW1 2137   3.120   0.410   0.813 -3.1813 -0.8499  1.4802
  652SOL    HW2 2138   3.217   0.348   0.929 -0.0987  0.0060 -0.5111
  653SOL     OW 2139   0.335   3.168   2.299  0.0277  0.5292 -0.5875
  653SOL    HW1 2140   0.275   3.145   2.375  1.4664  1.9118  1.0574
  653SOL    HW2 2141   0.288   3.230   2.236 -1.1156 -0.4804 -0.7467
  654SOL     OW 2142   2.478   0.851   0.982  0.2785  0.2613  0.4971
  654SOL    HW1 2143   2.544   0.879   1.053  0.7188  0.3959  0.0400
  654SOL    HW2 2144   2.391   0.829   1.026  1.0134 -1.2666  1.2912
  655SOL     OW 2145   0.018   0.218   2.724  0.1518  0.1676  0.3529
  655SOL    HW1 2146  -0.002   0.277   2.803  0.1312  0.5202  0.0898
  655SOL    HW2 2147   0.117   0.210   2.714  0.1857 -1.6487  1.7077
  656SOL     OW 2148   3.351   1.659   3.335  0.5999  0.2876  0.1959
  656SOL    HW1 2149   3.339   1.751   3.298  1.2012  0.0482 -0.6162
  656SOL    HW2 2150   3.265   1.609   3.329 -0.1937  1.2834  2.0954
  657SOL     OW 2151   1.215   2.900   2.917  0.2558  0.6822 -0.0639
  657SOL    HW1 2152   1.200   2.893   3.016  1.9275  0.8215  0.2278
  657SOL    HW2 2153   1.173   2.984   2.884  0.9420  1.3961  0.8114
  658SOL     OW 2154   3.029   1.979   3.203  0.3693 -0.3934 -0.1548
  658SOL    HW1 2155   3.042   1.999   3.300 -0.0287 -0.7488 -0.0235
  658SOL    HW2 2156   2.958   2.040   3.167  3.0465  2.3694 -1.1553
  659SOL     OW 2157   3.180   3.295   3.146 -0.4582  0.8177 -0.0003
  659SOL    HW1 2158   3.226   3.250   3.223  2.6632  1.5191 -1.3259
  659SOL    HW2 2159   3.195   3.394   3.151 -1.7846  1.0805 -0.5757
  660SOL     OW 2160   0.082   0.619   0.110  0.3527 -0.1909 -0.6492
  660SOL    HW1 2161  -0.003   0.578   0.143  0.3872 -0.1659 -0.5297
  660SOL    HW2 2162   0.120   0.679   0.181 -1.1181  2.2320 -1.7954
  661SOL     OW 2163   0.478   1.914   1.134  0.0288 -0.6578 -0.4340
  661SOL    HW1 2164   0.405   1.901   1.201  0.5740 -1.6317 -0.0130
  661SOL    HW2 2165   0.527   1.828   1.122  1.9389  0.2921  0.2575
  662SOL     OW 2166   3.546   3.573   3.594  0.0938  0.5019 -0.2888
  662SOL    HW1 2167   3.551   3.553   3.692 -3.2010  0.3758 -0.0207
  662SOL    HW2 2168   3.637   3.595   3.560  1.7118 -1.5648  2.3099
  663SOL     OW 2169   2.511   2.676   1.907  0.0789 -0.4849 -0.0558
  663SOL    HW1 2170   2.472   2.592   1.870 -1.4731 -0.1965  0.8541
  663SOL    HW2 2171   2.445   2.750   1.898  0.6418  0.1737  0.9925
  664SOL     OW 2172   2.261   2.236   3.554 -0.1755 -0.2903  0.0167
  664SOL    HW1 2173   2.290   2.192   3.469 -0.1600  1.0984 -0.7264
  664SOL    HW2 2174   2.341   2.258   3.610 -0.2972 -4.5428  2.2304
  665SOL     OW 2175   1.091   2.414   1.210  0.9934  0.0595 -0.0457
  665SOL    HW1 2176   1.073   2.445   1.116  1.0982 -1.1058 -0.4668
  665SOL    HW2 2177   1.189   2.408   1.225  1.0601  2.3566  0.8875
  666SOL     OW 2178   3.202   0.224   2.391  0.2189 -0.1224  0.3703
  666SOL    HW1 2179   3.278   0.256   2.447  1.2670 -1.2940 -0.3039
  666SOL    HW2 2180   3.228   0.229   2.294 -1.1775  0.9368  0.0239
  667SOL     OW 2181   2.872   1.863   0.381 -0.2167  0.3201  0.5549
  667SOL    HW1 2182   2.849   1.769   0.356  1.5748 -0.4273  1.5227
  667SOL    HW2 2183   2.792   1.921   0.366 -0.9185 -1.0397 -1.5329
  668SOL     OW 2184   0.782   0.777   2.963  0.0089 -0.1448 -0.1938
  668SOL    HW1 2185   0.705   0.728   3.005  0.5676 -1.1787 -0.3513
  668SOL    HW2 2186   0.747   0.859   2.918 -0.8801 -0.1164  0.5010
  669SOL     OW 2187   0.530   2.885   3.118  0.4533 -0.1579  0.0933
  669SOL    HW1 2188   0.521   2.869   3.216  1.2404 -1.2874  0.0022
  669SOL    HW2 2189   0.565   2.977   3.102 -0.1159  0.1967  0.8483
  670SOL     OW 2190   1.650   2.925   2.227 -0.4934  0.4900  0.6978
  670SOL    HW1 2191   1.690   2.909   2.316 -0.8471  0.6572  0.8914
  670SOL    HW2 2192   1.714   2.979   2.171 -0.1723  0.1741  0.7627
  671SOL     OW 2193   0.296   1.311   2.000  0.7178 -0.0016  0.2034
  671SOL    HW1 2194   0.314   1.331   1.903 -1.2483 -0.5675 -0.3361
  671SOL    HW2 2195   0.335   1.383   2.056  1.0348  0.8771 -1.0937
  672SOL     OW 2196   1.152   2.508   0.572 -0.0713 -0.2608 -0.0370
  672SOL    HW1 2197   1.229   2.478   0.629  0.8335  0.1497 -1.0076
  672SOL    HW2 2198   1.146   2.608   0.575 -0.7636 -0.3062  0.2666
  673SOL     OW 2199   0.913   1.778   3.152  0.4090 -0.1596 -0.3159
  673SOL    HW1 2200   0.944   1.706   3.089 -0.9281 -0.7995 -0.2629
  673SOL    HW2 2201   0.899   1.739   3.243 -0.5537  0.1056 -0.3418
  674SOL     OW 2202   1.052   1.619   1.813 -0.0611  0.7353  0.3326
  674SOL    HW1 2203   1.135   1.652   1.769  0.1356  1.9079  1.5186
  674SOL    HW2 2204   1.077   1.557   1.888 -0.2902  0.5333  0.2428
  675SOL     OW 2205   2.240   1.599   3.203 -0.4034  0.1998 -0.1372
  675SOL    HW1 2206   2.251   1.505   3.234 -2.1337 -0.1482 -0.4588
  675SOL    HW2 2207   2.309   1.656   3.246  0.7250 -1.2204  0.0083
  676SOL     OW 2208   3.559   0.855   2.219 -0.2278 -0.1755 -0.0414
  676SOL    HW1 2209   3.543   0.953   2.210  0.9041 -0.1068 -1.6488
  676SOL    HW2 2210   3.638   0.829   2.163  0.3564 -1.7779  1.4544
  677SOL     OW 2211   2.756   1.857   2.787  0.1589 -0.4834 -0.4207
  677SOL    HW1 2212   2.822   1.860   2.862  1.4758 -1.7890 -1.4394
  677SOL    HW2 2213   2.703   1.772   2.793 -0.3430 -0.1707 -0.4625
  678SOL     OW 2214   2.911   2.185   2.986  0.2531  0.3921  0.6630
  678SOL    HW1 2215   3.002   2.169   2.949  0.4904 -0.3326  1.5232
  678SOL    HW2 2216   2.916   2.254   3.058  0.2554 -0.1525  1.1969
  679SOL     OW 2217   0.074   0.614   0.911  0.2015 -0.4907  0.0031
  679SOL    HW1 2218   0.166   0.622   0.871  0.4860 -0.2537  0.7001
  679SOL    HW2 2219   0.079   0.555   0.992  0.2015  1.4306  1.4577
  680SOL     OW 2220   1.295   0.402   3.578  0.9055  0.0013 -0.1609
  680SOL    HW1 2221   1.231   0.434   3.508 -0.1327 -0.1420  0.6946
  680SOL    HW2 2222   1.351   0.479   3.610  1.6470 -0.0027 -1.3798
  681SOL     OW 2223   1.728   2.542   3.233  0.0754 -0.3249 -0.0905
  681SOL    HW1 2224   1.682   2.475   3.292  1.0688 -0.1903  0.8896
  681SOL    HW2 2225   1.703   2.525   3.138 -0.9087 -1.0981  0.2871
  682SOL     OW 2226   1.546   2.173   1.108  0.0052  0.1125 -0.4199
  682SOL    HW1 2227   1.497   2.092   1.074 -0.5920 -0.0007  0.6810
  682SOL    HW2 2228   1.636   2.146   1.141  0.6289  0.2353 -1.9450
  683SOL     OW 2229   1.207   1.755   2.434  0.2954 -0.0348 -0.3893
  683SOL    HW1 2230   1.144   1.691   2.477  2.2111 -1.6944  0.0915
  683SOL    HW2 2231   1.192   1.756   2.336  0.4582 -1.5263 -0.4442
  684SOL     OW 2232   2.456   3.441   3.345  0.1869  0.6160 -0.0948
  684SOL    HW1 2233   2.383   3.416   3.409  2.4501 -0.0108  2.4242
  684SOL    HW2 2234   2.469   3.540   3.348  0.2970  0.5909  0.4848
  685SOL     OW 2235   3.269   1.981   2.564  0.0516  0.6560  0.6664
  685SOL    HW1 2236   3.267   1.881   2.572 -4.4730  0.6462  2.1542
  685SOL    HW2 2237   3.336   2.017   2.629  1.0908 -1.3338  0.7826
  686SOL     OW 2238   2.550   1.692   0.676 -0.2073  0.1931 -0.2407
  686SOL    HW1 2239   2.517   1.635   0.751  0.9481  1.7180  1.4861
  686SOL    HW2 2240   2.472   1.718   0.618 -1.3110 -0.0719  1.0791
  687SOL     OW 2241   0.379   3.023   1.365  0.5726  0.2722  0.1770
  687SOL    HW1 2242   0.280   3.017   1.373  0.5772  0.2406  0.2147
  687SOL    HW2 2243   0.419   2.932   1.380  0.6715  0.4677  1.2211
  688SOL     OW 2244   3.144   0.400   2.718  0.1774 -0.5348 -0.2383
  688SOL    HW1 2245   3.223   0.363   2.670  0.1529 -0.0222 -0.6713
  688SOL    HW2 2246   3.111   0.332   2.784  0.8262 -0.8408 -0.2288
  689SOL     OW 2247   0.336   2.730   3.329  0.3794  0.3144 -0.0285
  689SOL    HW1 2248   0.251   2.723   3.277 -0.5557  1.4809  1.2646
  689SOL    HW2 2249   0.336   2.816   3.380  1.7246 -0.3039  1.0677
  690SOL     OW 2250   2.810   2.814   2.929  0.2324  0.1194  0.1568
  690SOL    HW1 2251   2.841   2.904   2.901  0.8171  0.3841  1.5954
  690SOL    HW2 2252   2.837   2.797   3.024  0.1222 -1.5626 -0.0765
  691SOL     OW 2253   0.713   1.067   2.591  0.7110  0.3676  0.4356
  691SOL    HW1 2254   0.719   1.166   2.594  1.6005  0.2977  1.0171
  691SOL    HW2 2255   0.782   1.031   2.527  1.0388  0.0643  0.9567
  692SOL     OW 2256   3.489   0.319   0.990 -0.2416 -0.2242  0.1167
  692SOL    HW1 2257   3.419   0.390   1.003  0.7403  1.0488 -1.2199
  692SOL    HW2 2258   3.444   0.230   0.990 -2.2658  0.6325 -2.6467
  693SOL     OW 2259   0.256   2.619   1.432 -0.3854 -0.2194 -0.0841
  693SOL    HW1 2260   0.298   2.695   1.381  0.8208  0.2034  1.4657
  693SOL    HW2 2261   0.328   2.559   1.466 -1.0975 -0.1143  1.6866
  694SOL     OW 2262   1.398   3.551   1.102 -0.4724 -0.0807  0.6238
  694SOL    HW1 2263   1.409   3.631   1.161 -1.9309  0.1173  0.6711
  694SOL    HW2 2264   1.418   3.577   1.007  0.6540 -0.0846  0.8528
  695SOL     OW 2265   2.677   3.020   1.591 -0.3350 -0.7055  0.0144
  695SOL    HW1 2266   2.724   3.003   1.678 -0.4726  0.0519  0.2437
  695SOL    HW2 2267   2.579   3.028   1.607 -0.3307 -0.2706 -0.1616
  696SOL     OW 2268   3.533   1.508   3.162  0.0447 -0.3952 -0.3405
  696SOL    HW1 2269   3.516   1.416   3.197  1.4937 -0.9456 -0.9647
  696SOL    HW2 2270   3.494   1.576   3.225  0.3050 -1.4042  0.9519
  697SOL     OW 2271   3.274   1.334   3.101  0.6101 -0.4251  0.1003
  697SOL    HW1 2272   3.259   1.428   3.070  0.9440 -0.4925 -0.2718
  697SOL    HW2 2273   3.363   1.328   3.146 -0.2666 -0.1091  1.9790
  698SOL     OW 2274   1.202   0.507   1.824 -0.4382  0.1577 -0.0623
  698SOL    HW1 2275   1.241   0.597   1.846 -0.4736  0.2111 -0.2144
  698SOL    HW2 2276   1.103   0.510   1.841 -1.1822  1.3801 -3.6863
  699SOL     OW 2277   1.907   3.505   2.867  0.3495  0.2547  0.0695
  699SOL    HW1 2278   1.923   3.602   2.884 -1.0443  0.1177  2.8530
  699SOL    HW2 2279   1.813   3.491   2.837  0.9687 -0.1426 -1.7710
  700SOL     OW 2280   0.969   0.566   1.551  0.6170 -0.4977 -0.2865
  700SOL    HW1 2281   1.030   0.646   1.546 -0.9532  0.7237 -0.5052
  700SOL    HW2 2282   1.020   0.485   1.522  2.2503  0.4091 -0.0879
  701SOL     OW 2283   2.564   0.086   2.315  0.3668  0.6683 -0.6127
  701SOL    HW1 2284   2.639   0.084   2.249 -0.0247 -1.8915 -1.0573
  701SOL    HW2 2285   2.477   0.092   2.265  0.1472  0.7174 -0.2284
  702SOL     OW 2286   1.198   1.643   0.487 -0.1268 -0.3621  0.3913
  702SOL    HW1 2287   1.204   1.574   0.560  2.9199  0.0990  0.7218
  702SOL    HW2 2288   1.131   1.713   0.513 -1.0447 -1.5843  1.4657
  703SOL     OW 2289   0.029   1.183   0.282  0.1050 -0.5354 -0.6790
  703SOL    HW1 2290  -0.049   1.233   0.320 -0.2251 -2.3107  1.1826
  703SOL    HW2 2291   0.015   1.085   0.298  2.2437 -0.9691 -1.2369
  704SOL     OW 2292   2.518   3.232   2.616 -0.7051  0.7092 -0.1814
  704SOL    HW1 2293   2.592   3.265   2.674  0.9678 -1.4556 -0.9715
  704SOL    HW2 2294   2.529   3.269   2.524  0.5968 -1.0964 -0.8066
  705SOL     OW 2295   0.377   0.015   1.680 -0.0319 -0.6976 -0.0999
  705SOL    HW1 2296   0.292  -0.018   1.720  0.0080 -0.5372  0.1195
  705SOL    HW2 2297   0.374   0.002   1.581 -1.2002  1.2340 -0.3746
  706SOL     OW 2298   0.340   1.301   1.055  0.0828  0.2950  0.5436
  706SOL    HW1 2299   0.302   1.218   1.015  1.0796  0.2337 -0.3296
  706SOL    HW2 2300   0.267   1.352   1.101 -0.5551 -0.9997  1.0046
  707SOL     OW 2301   0.459   3.031   1.740  0.0261  0.3835 -0.1613
  707SOL    HW1 2302   0.516   3.110   1.759  0.5491  0.5249 -2.0630
  707SOL    HW2 2303   0.518   2.952   1.721 -0.4385  0.0827 -0.3815
  708SOL     OW 2304   3.303   3.113   2.947  0.1757 -0.6374 -0.4655
  708SOL    HW1 2305   3.359   3.172   2.889  0.7513 -1.0494 -0.3299
  708SOL    HW2 2306   3.252   3.171   3.012 -0.3893 -0.1843 -1.2832
  709SOL     OW 2307   0.988   3.591   1.674  0.1007  1.3502 -0.3122
  709SOL    HW1 2308   0.935   3.671   1.645  2.0178  2.9185  0.3227
  709SOL    HW2 2309   1.054   3.567   1.603  0.0570  0.8053 -0.1746
  710SOL     OW 2310   1.994   2.280   1.907  0.4612 -0.0843 -0.4208
  710SOL    HW1 2311   1.913   2.221   1.911  0.6848 -0.3508  2.6212
  710SOL    HW2 2312   1.989   2.337   1.825 -1.9141 -1.3074 -1.2156
  711SOL     OW 2313   1.676   2.812   3.152 -0.5986 -0.6505 -0.0226
  711SOL    HW1 2314   1.612   2.802   3.076 -1.3742 -0.0553  0.5309
  711SOL    HW2 2315   1.701   2.722   3.187 -2.2849 -0.8976  0.6735
  712SOL     OW 2316   2.032   0.933   3.009  0.6883 -0.5162 -0.0406
  712SOL    HW1 2317   1.963   1.004   3.022  1.9027  0.4613  1.4704
  712SOL    HW2 2318   2.000   0.849   3.052 -0.3082 -0.6059 -0.9163
  713SOL     OW 2319   0.144   0.300   2.173  0.0372  0.0935  0.6004
  713SOL    HW1 2320   0.130   0.395   2.199 -1.1930  0.2568 -0.5794
  713SOL    HW2 2321   0.116   0.241   2.249 -0.9855  0.6198  0.6408
  714SOL     OW 2322   2.656   3.531   0.440  0.1656 -0.3004 -0.1044
  714SOL    HW1 2323   2.560   3.503   0.450  0.8824 -2.1231  3.2829
  714SOL    HW2 2324   2.706   3.460   0.390 -0.0929  0.3876 -1.3797
  715SOL     OW 2325   2.741   2.859   2.617 -0.2825  0.2290  0.0111
  715SOL    HW1 2326   2.781   2.947   2.593 -2.1860  0.8908 -0.9957
  715SOL    HW2 2327   2.766   2.836   2.711  0.6928  1.5807  0.1083
  716SOL     OW 2328   2.245   3.255   1.653 -0.5742  0.3356  0.3187
  716SOL    HW1 2329   2.233   3.273   1.751 -2.2980 -0.2640  0.2412
  716SOL    HW2 2330   2.170   3.296   1.602 -1.2394 -1.7282 -0.4592
  717SOL     OW 2331   1.211   0.824   0.091 -0.3633 -0.7463 -0.2799
  717SOL    HW1 2332   1.261   0.742   0.121  2.9286  1.1994  0.1413
  717SOL    HW2 2333   1.229   0.840  -0.006  1.7576  1.0806  0.3260
  718SOL     OW 2334   1.637   0.157   1.471  0.1132  0.3591  0.2919
  718SOL    HW1 2335   1.644   0.181   1.568 -0.7920  0.7227  0.2791
  718SOL    HW2 2336   1.670   0.064   1.457  2.5551  1.1197  0.5464
  719SOL     OW 2337   2.774   2.533   3.307 -0.5141 -0.1607  0.0472
  719SOL    HW1 2338   2.742   2.557   3.399 -2.6069 -2.2533 -0.0392
  719SOL    HW2 2339   2.860   2.483   3.314  0.1862  1.0840  0.7079
  720SOL     OW 2340   3.195   1.952   1.532  0.0958 -0.2846  0.1342
  720SOL    HW1 2341   3.286   1.952   1.490  0.4375  0.2284  0.8444
  720SOL    HW2 2342   3.163   1.858   1.542  0.6739 -0.4871  0.1267
  721SOL     OW 2343   1.515   1.297   2.519 -0.0435  0.2191 -0.2235
  721SOL    HW1 2344   1.597   1.328   2.566 -0.4005  0.5752  0.1706
  721SOL    HW2 2345   1.459   1.376   2.496  0.4644  0.1287 -1.8973
  722SOL     OW 2346   0.300   1.063   2.727  0.4975 -0.2966  0.7280
  722SOL    HW1 2347   0.325   1.155   2.696 -0.8103  0.5818  2.1436
  722SOL    HW2 2348   0.369   0.998   2.695  1.2604  1.1009 -0.6247
  723SOL     OW 2349   0.064   3.097   3.318 -0.2797 -0.1774  0.1555
  723SOL    HW1 2350   0.091   3.099   3.414 -1.9599  0.1749  0.6506
  723SOL    HW2 2351   0.137   3.137   3.263  0.9345 -0.8625  1.1992
  724SOL     OW 2352   1.177   3.453   0.996  0.8110  0.8602  0.2683
  724SOL    HW1 2353   1.179   3.423   0.901  0.5047  0.2692  0.4443
  724SOL    HW2 2354   1.270   3.473   1.027  0.8590  1.6281 -0.3282
  725SOL     OW 2355   0.057   2.009   0.560 -0.4570  0.2192  0.3139
  725SOL    HW1 2356  -0.030   2.000   0.610 -1.2170  1.8703 -0.6399
  725SOL    HW2 2357   0.040   2.000   0.462  0.6312 -0.4738  0.1746
  726SOL     OW 2358   1.582   3.045   3.286  0.3132  0.0637  0.4562
  726SOL    HW1 2359   1.629   2.981   3.225 -0.2546 -0.1898  0.2796
  726SOL    HW2 2360   1.574   3.004   3.377  0.9616  0.3508  0.6448
  727SOL     OW 2361   2.720   0.574   0.667  0.1892 -0.5464 -0.4286
  727SOL    HW1 2362   2.677   0.529   0.589 -1.5884  1.1834 -0.5144
  727SOL    HW2 2363   2.780   0.648   0.635 -0.7363  0.3322 -0.1901
  728SOL     OW 2364   3.345   3.418   1.483 -0.2812  0.0782 -1.1320
  728SOL    HW1 2365   3.297   3.505   1.494  0.1474  0.2200 -0.2834
  728SOL    HW2 2366   3.443   3.436   1.475  0.0236 -0.3967  0.8914
  729SOL     OW 2367   3.006   1.894   0.151  0.5979 -0.4592 -0.1153
  729SOL    HW1 2368   2.962   1.886   0.241  1.0510  0.4996  0.2070
  729SOL    HW2 2369   2.987   1.812   0.098 -2.9943  0.5238 -0.6093
  730SOL     OW 2370   0.671   2.140   2.023  0.0042  0.0990 -0.2451
  730SOL    HW1 2371   0.745   2.119   1.960 -0.2382  0.4454 -0.6497
  730SOL    HW2 2372   0.654   2.239   2.023  1.5142  0.4300  2.0600
  731SOL     OW 2373   0.921   2.934   1.405  0.1708  0.4566  0.2894
  731SOL    HW1 2374   1.012   2.970   1.381 -0.2209 -0.3654 -2.9821
  731SOL    HW2 2375   0.932   2.861   1.473  1.7919  1.2260  0.9258
  732SOL     OW 2376   1.194   2.157   2.730  0.1036 -0.4512  0.3428
  732SOL    HW1 2377   1.247   2.239   2.751 -1.1568  0.3627  0.5172
  732SOL    HW2 2378   1.097   2.178   2.741 -0.5462 -0.8137 -3.2847
  733SOL     OW 2379   0.430   1.476   1.818  0.1474 -0.0079  0.2450
  733SOL    HW1 2380   0.521   1.485   1.858  0.4529 -0.8312 -0.2291
  733SOL    HW2 2381   0.439   1.442   1.724 -0.7071 -2.7385  1.0453
  734SOL     OW 2382   2.475   0.429   2.323  0.3149 -0.5279  0.3206
  734SOL    HW1 2383   2.562   0.414   2.276 -0.0594 -0.7758 -0.3069
  734SOL    HW2 2384   2.476   0.378   2.409  0.6226 -0.8820  0.1127
  735SOL     OW 2385   0.798   1.486   2.775 -0.5337  0.3794 -0.4147
  735SOL    HW1 2386   0.734   1.494   2.851  0.2118  1.0219  0.1678
  735SOL    HW2 2387   0.852   1.570   2.768  0.9419 -0.5135 -0.2486
  736SOL     OW 2388   1.627   0.806   2.462 -0.2266  0.4473 -0.3547
  736SOL    HW1 2389   1.581   0.719   2.443  2.1552 -0.6825 -1.3422
  736SOL    HW2 2390   1.574   0.881   2.422 -1.2154 -0.7684 -1.3943
  737SOL     OW 2391   3.354   1.187   1.392 -0.7528  0.5023  0.2024
  737SOL    HW1 2392   3.260   1.179   1.424 -0.4702  0.1909  0.9811
  737SOL    HW2 2393   3.417   1.166   1.467 -0.0511  1.0998 -0.1958
  738SOL     OW 2394   1.162   1.598   3.473 -0.2306  0.1315  0.6090
  738SOL    HW1 2395   1.257   1.624   3.487  0.0990  0.6753 -2.2085
  738SOL    HW2 2396   1.106   1.639   3.545  1.3249  2.0227  0.8177
  739SOL     OW 2397   1.304   1.117   0.208  0.0626  0.1623  0.4954
  739SOL    HW1 2398   1.308   1.036   0.149 -0.9425  0.6452 -0.2614
  739SOL    HW2 2399   1.266   1.090   0.297 -0.8110 -0.1076  0.0545
  740SOL     OW 2400   2.155   0.157   0.360  0.5294  0.0555  0.5690
  740SOL    HW1 2401   2.187   0.155   0.455  3.3837  6.0638  0.2437
  740SOL    HW2 2402   2.055   0.148   0.359  0.2514  0.9163  4.3633
  741SOL     OW 2403   0.358   0.291   1.688 -0.1054  0.1853 -0.3702
  741SOL    HW1 2404   0.451   0.325   1.702  0.0432 -0.3788  0.0751
  741SOL    HW2 2405   0.362   0.194   1.666 -0.6488 -0.1839  1.0099
  742SOL     OW 2406   2.832   0.774   3.234  0.0969 -0.2387 -0.3425
  742SOL    HW1 2407   2.911   0.836   3.228  0.0288 -0.1887 -0.8390
  742SOL    HW2 2408   2.767   0.797   3.161  0.3744 -1.3165 -0.9525
  743SOL     OW 2409   2.923   2.812   1.015  0.1431 -0.1578 -0.6102
  743SOL    HW1 2410   2.864   2.763   1.079  0.0442  1.3836  0.5493
  743SOL    HW2 2411   2.884   2.902   0.997  3.0764  1.8369  1.9360
  744SOL     OW 2412   0.035   0.537   1.600 -0.2876 -0.4273  0.1031
  744SOL    HW1 2413   0.013   0.633   1.583 -0.6207 -0.4422  0.4181
  744SOL    HW2 2414   0.134   0.525   1.603 -0.2466 -0.0896  0.0731
  745SOL     OW 2415   1.925   0.359   0.512  0.0420 -0.6696  0.4184
  745SOL    HW1 2416   1.849   0.423   0.518  1.5838  1.1640  1.1400
  745SOL    HW2 2417   1.900   0.284   0.450 -2.0144  0.3050 -0.0004
  746SOL     OW 2418   3.480   2.078   2.735 -0.4129 -1.3977  0.4138
  746SOL    HW1 2419   3.543   2.000   2.741 -1.6235 -2.4353  0.0691
  746SOL    HW2 2420   3.443   2.097   2.826 -0.5055 -1.5647  0.4118
  747SOL     OW 2421   1.543   3.372   3.125  0.2446 -0.3153  0.5991
  747SOL    HW1 2422   1.581   3.355   3.034 -1.3765  1.1199 -0.3908
  747SOL    HW2 2423   1.455   3.419   3.116  0.0804 -0.0770  2.9197
  748SOL     OW 2424   0.777   1.980   3.559 -0.2950  0.0787  0.4374
  748SOL    HW1 2425   0.816   1.888   3.564 -0.2016  0.1273  0.5941
  748SOL    HW2 2426   0.767   2.017   3.651 -1.3861 -0.2202  0.4511
  749SOL     OW 2427   1.502   3.179   1.669 -0.3130 -0.7310  0.0256
  749SOL    HW1 2428   1.521   3.123   1.749  4.1190 -2.0939 -1.6849
  749SOL    HW2 2429   1.555   3.264   1.674 -1.9836  0.3830 -0.3557
  750SOL     OW 2430   0.613   1.032   0.108 -0.9236 -0.1468  0.7259
  750SOL    HW1 2431   0.628   1.119   0.061 -0.3357  0.1217  1.3901
  750SOL    HW2 2432   0.604   1.049   0.206 -0.4764 -0.8729  0.8959
  751SOL     OW 2433   1.479   2.861   1.455  0.5975 -0.0298 -0.0121
  751SOL    HW1 2434   1.536   2.784   1.426  1.0145  0.4814 -0.6011
  751SOL    HW2 2435   1.533   2.945   1.450 -0.1221  0.4300 -0.3090
  752SOL     OW 2436   0.941   0.456   1.919 -0.0397 -0.4429 -0.1274
  752SOL    HW1 2437   0.917   0.455   2.016 -3.4756 -0.9738 -0.8240
  752SOL    HW2 2438   0.905   0.540   1.877  3.9370  1.2529 -0.5465
  753SOL     OW 2439   0.859   1.419   3.191 -0.1869 -0.0517 -0.1347
  753SOL    HW1 2440   0.811   1.460   3.114  0.5349 -0.0410 -0.5897
  753SOL    HW2 2441   0.950   1.460   3.198 -0.0471 -0.4428  0.3874
  754SOL     OW 2442   3.375   2.723   1.067  0.0149  0.7797  0.6293
  754SOL    HW1 2443   3.289   2.740   1.114 -0.5052  1.6315 -0.5787
  754SOL    HW2 2444   3.378   2.627   1.038 -0.5172  0.7448  0.6817
  755SOL     OW 2445   0.931   3.161   2.205 -0.1678 -0.1504 -0.4148
  755SOL    HW1 2446   0.844   3.164   2.157 -0.3385 -2.9478 -0.4612
  755SOL    HW2 2447   1.002   3.126   2.144 -0.2208 -3.0428  1.0137
  756SOL     OW 2448   1.701   0.792   0.646 -0.1899  0.1644  0.2385
  756SOL    HW1 2449   1.720   0.810   0.743 -1.2264 -0.3964  0.5640
  756SOL    HW2 2450   1.784   0.755   0.603 -0.4205 -2.1291  1.5838
  757SOL     OW 2451   1.482   2.636   3.407 -0.6624 -0.0821  0.3171
  757SOL    HW1 2452   1.513   2.546   3.377  3.5552  1.2917 -0.1340
  757SOL    HW2 2453   1.397   2.659   3.360 -0.5580 -2.8089 -1.4080
  758SOL     OW 2454   3.066   0.928   3.267  0.3768  0.1727 -0.3421
  758SOL    HW1 2455   3.064   1.024   3.293 -1.6780  0.6370 -1.9742
  758SOL    HW2 2456   3.161   0.895   3.272  0.7470  1.2545  3.4979
  759SOL     OW 2457   1.623   1.311   2.831 -0.2085  0.0487 -0.1613
  759SOL    HW1 2458   1.674   1.363   2.763  0.5447  0.8180  0.9556
  759SOL    HW2 2459   1.672   1.226   2.851  0.4687  0.6231  0.6547
  760SOL     OW 2460   0.797   3.520   2.542  0.6262  0.3992  0.4741
  760SOL    HW1 2461   0.834   3.483   2.456  1.3150  1.7290  0.1776
  760SOL    HW2 2462   0.698   3.502   2.544  0.5551  0.5394 -0.6993
  761SOL     OW 2463   2.942   3.373   0.479 -0.2810  0.1499  0.6440
  761SOL    HW1 2464   2.927   3.426   0.396 -1.9996  0.6620  1.2470
  761SOL    HW2 2465   3.037   3.384   0.509  1.1825 -2.0409 -2.5819
  762SOL     OW 2466   2.420   2.430   1.872  0.0378  0.3095 -0.4810
  762SOL    HW1 2467   2.470   2.343   1.877 -3.2015 -1.6303  3.1947
  762SOL    HW2 2468   2.345   2.421   1.806 -0.1635  0.3917 -0.2645
  763SOL     OW 2469   3.445   0.301   2.210  0.4899 -0.1537  0.0518
  763SOL    HW1 2470   3.441   0.386   2.158 -0.5726  0.1079  0.5289
  763SOL    HW2 2471   3.525   0.303   2.271  0.6252  0.3802 -0.1386
  764SOL     OW 2472   3.446   3.506   1.960 -0.3170  0.1885 -0.2117
  764SOL    HW1 2473   3.366   3.524   1.903 -0.3693 -1.3756 -0.6857
  764SOL    HW2 2474   3.498   3.429   1.921  0.9671  0.6334  0.5426
  765SOL     OW 2475   1.268   0.336   1.303 -0.2364  0.2473  0.0551
  765SOL    HW1 2476   1.209   0.323   1.383 -0.2120  1.0285  0.2103
  765SOL    HW2 2477   1.217   0.386   1.233 -0.7528 -1.6815 -1.0255
  766SOL     OW 2478   2.217   0.209   1.098  0.2478 -0.5060 -0.0610
  766SOL    HW1 2479   2.208   0.240   1.004 -0.1094 -3.5541 -1.1659
  766SOL    HW2 2480   2.310   0.226   1.130 -0.4886  3.6921  0.4216
  767SOL     OW 2481   1.178   1.005   3.008  0.5522  0.1008 -0.4802
  767SOL    HW1 2482   1.178   0.962   2.917  1.2331  0.6250 -0.7341
  767SOL    HW2 2483   1.119   0.953   3.069  1.8485 -1.5832 -0.5981
  768SOL     OW 2484   0.719   1.893   2.181  0.2192 -0.2806 -0.2306
  768SOL    HW1 2485   0.780   1.846   2.118  1.5371  0.4428  0.4599
  768SOL    HW2 2486   0.698   1.984   2.145  0.0457 -0.2935 -0.1641
  769SOL     OW 2487   2.958   3.063   2.164 -0.0693  0.4485  0.0039
  769SOL    HW1 2488   2.876   3.061   2.222  0.6093 -1.1684  1.0015
  769SOL    HW2 2489   2.979   2.970   2.135  3.3113  0.1763  2.6453
  770SOL     OW 2490   0.136   0.983   1.307  0.0378  0.3554 -0.5236
  770SOL    HW1 2491   0.227   0.975   1.347 -0.9465 -0.8206  1.6867
  770SOL    HW2 2492   0.122   0.909   1.241  0.7611  0.6707 -1.0288
  771SOL     OW 2493   2.772   2.329   1.964  0.2789 -0.1027 -0.2124
  771SOL    HW1 2494   2.675   2.334   1.941 -0.0103 -1.9358  0.4502
  771SOL    HW2 2495   2.826   2.358   1.885 -0.7684  3.4149  0.1905
  772SOL     OW 2496   3.573   1.142   2.509 -0.0783  0.3989 -0.2409
  772SOL    HW1 2497   3.578   1.054   2.555 -2.4414 -0.4995 -1.5301
  772SOL    HW2 2498   3.665   1.176   2.493  0.8673 -1.3171  1.2278
  773SOL     OW 2499   1.995   2.496   0.641  0.3264 -0.7924 -0.0193
  773SOL    HW1 2500   2.087   2.484   0.676  0.2380  1.5714  1.1974
  773SOL    HW2 2501   1.997   2.553   0.558 -0.0936  0.4645  0.7973
  774SOL     OW 2502   0.582   1.391   0.973 -0.0223  0.0004  0.7155
  774SOL    HW1 2503   0.489   1.362   0.994  0.3645 -1.0490  1.0565
  774SOL    HW2 2504   0.613   1.344   0.890  0.6329 -0.6161  1.2966
  775SOL     OW 2505   2.258   3.389   1.254  0.7425  0.1592 -0.1496
  775SOL    HW1 2506   2.217   3.425   1.171  0.2661 -0.5941 -0.2545
  775SOL    HW2 2507   2.216   3.434   1.334 -0.0203 -0.3152 -0.2687
  776SOL     OW 2508   0.106   2.994   1.355 -0.6218 -0.0676  0.2126
  776SOL    HW1 2509   0.065   2.907   1.328  0.8196 -0.8813  0.5526
  776SOL    HW2 2510   0.034   3.063   1.365 -1.6027 -0.6875 -2.0053
  777SOL     OW 2511   2.600   1.971   2.600 -0.4310  0.5504  0.5636
  777SOL    HW1 2512   2.649   1.930   2.678 -0.0988  0.7576  0.4639
  777SOL    HW2 2513   2.650   1.952   2.516 -0.7053  0.4666  0.4170
  778SOL     OW 2514   3.405   1.298   0.398  0.2721  0.8022 -0.2850
  778SOL    HW1 2515   3.370   1.388   0.372 -0.3471  1.1139  1.4814
  778SOL    HW2 2516   3.424   1.298   0.496 -1.2045 -1.4479  0.0664
  779SOL     OW 2517   2.303   3.329   3.571 -0.0388 -0.2700 -0.2694
  779SOL    HW1 2518   2.286   3.408   3.629  0.0151 -1.9009  2.1237
  779SOL    HW2 2519   2.216   3.293   3.537 -0.2217 -0.2439  0.1652
  780SOL     OW 2520   2.726   2.697   1.175 -0.0604  0.6524  0.1611
  780SOL    HW1 2521   2.741   2.599   1.188 -0.9036  0.4739 -0.1396
  780SOL    HW2 2522   2.736   2.744   1.262 -0.4302  0.1948  0.4529
  781SOL     OW 2523   0.755   2.019   2.451 -0.0569 -0.3183 -0.0289
  781SOL    HW1 2524   0.727   1.956   2.378  1.9877 -1.5578  0.1715
  781SOL    HW2 2525   0.833   2.073   2.419 -0.1189  0.2226  0.7179
  782SOL     OW 2526   1.346   1.211   0.659  0.3540 -0.0445 -0.2188
  782SOL    HW1 2527   1.415   1.196   0.729  1.7444  0.1431 -1.4900
  782SOL    HW2 2528   1.351   1.138   0.591 -0.4843  0.1525 -0.5128
  783SOL     OW 2529   2.968   3.319   1.333 -0.0057 -0.2266  0.3534
  783SOL    HW1 2530   2.882   3.320   1.384  0.2668 -2.0663  0.9345
  783SOL    HW2 2531   3.041   3.357   1.391  0.0051 -0.8602  0.7651
  784SOL     OW 2532   3.245   1.696   2.650 -0.2151 -0.4069  0.1047
  784SOL    HW1 2533   3.283   1.639   2.577  1.4117  0.1854  0.4514
  784SOL    HW2 2534   3.165   1.651   2.688 -0.1346 -1.5037 -0.9512
  785SOL     OW 2535   3.145   1.882   0.819  0.0839  0.5022  0.0870
  785SOL    HW1 2536   3.152   1.887   0.719  1.5618  0.0981  0.1368
  785SOL    HW2 2537   3.204   1.809   0.852 -0.7467  0.3261  1.2376
  786SOL     OW 2538   0.164   0.324   3.177 -0.1074 -0.3137  0.2367
  786SOL    HW1 2539   0.093   0.332   3.247 -0.6084 -0.0604 -0.2988
  786SOL    HW2 2540   0.248   0.367   3.211  1.1973 -4.1552  2.6323
  787SOL     OW 2541   0.031   1.021   0.906  0.2632 -0.1103  0.4548
  787SOL    HW1 2542   0.117   1.062   0.937 -0.3372  0.5212  1.3578
  787SOL    HW2 2543  -0.038   1.093   0.898 -0.5249 -0.7881  1.0034
  788SOL     OW 2544   3.297   2.392   1.355  0.4928 -0.0660 -0.4733
  788SOL    HW1 2545   3.351   2.403   1.272  2.2294 -0.3246  0.5804
  788SOL    HW2 2546   3.255   2.301   1.356  0.8766 -0.2477 -0.8391
  789SOL     OW 2547   0.067   0.907   3.036  0.3705  0.0494  0.3340
  789SOL    HW1 2548   0.008   0.832   3.005  1.0563 -0.1027 -0.6382
  789SOL    HW2 2549   0.052   0.922   3.133 -1.8119  0.5043 -0.0220
  790SOL     OW 2550   0.998   1.054   0.462 -0.3227 -0.2356  0.3475
  790SOL    HW1 2551   1.079   1.040   0.520 -0.3291  1.7083  0.8757
  790SOL    HW2 2552   0.952   0.966   0.450  1.3179 -1.2046  0.8497
  791SOL     OW 2553   1.998   0.037   2.408  0.0040 -0.4240 -0.3840
  791SOL    HW1 2554   2.063  -0.036   2.383 -0.2806 -0.7550 -0.1604
  791SOL    HW2 2555   1.956   0.073   2.325 -0.2362 -0.8737 -0.4623
  792SOL     OW 2556   2.409   3.019   1.627  0.2739  0.2693 -0.7353
  792SOL    HW1 2557   2.355   2.952   1.575 -0.8922 -0.3908  1.2208
  792SOL    HW2 2558   2.358   3.104   1.634  0.1978  0.1834 -0.2419
  793SOL     OW 2559   2.673   1.842   1.323 -0.3316  0.6391 -0.4070
  793SOL    HW1 2560   2.721   1.843   1.235 -0.2601 -0.2226 -0.3879
  793SOL    HW2 2561   2.679   1.750   1.362 -1.1279  0.7853  0.0775
  794SOL     OW 2562   0.725   1.071   0.640  0.3761 -0.1303 -0.1823
  794SOL    HW1 2563   0.717   0.995   0.705 -0.5392  0.0794 -0.0358
  794SOL    HW2 2564   0.798   1.051   0.575  1.2959 -0.3595  0.8891
  795SOL     OW 2565   0.325   0.981   2.399 -0.4919  0.0203  0.3582
  795SOL    HW1 2566   0.376   0.969   2.484 -1.4983  0.0991  0.9874
  795SOL    HW2 2567   0.386   0.965   2.321 -0.0641 -2.3387  1.0840
  796SOL     OW 2568   3.237   2.788   3.532 -0.0960 -0.0090  0.3520
  796SOL    HW1 2569   3.264   2.853   3.603 -2.1966  1.4685 -0.1013
  796SOL    HW2 2570   3.196   2.838   3.456  0.5047 -1.7027 -1.1680
  797SOL     OW 2571   1.131   0.459   1.118  0.0577 -0.1395 -0.4399
  797SOL    HW1 2572   1.166   0.386   1.060  0.3125 -1.5061  1.3482
  797SOL    HW2 2573   1.034   0.442   1.136 -0.8625  1.9625 -2.8816
  798SOL     OW 2574   2.006   1.171   0.111 -0.1339  0.1486 -0.0375
  798SOL    HW1 2575   1.983   1.103   0.180 -0.2537 -1.5358 -1.6610
  798SOL    HW2 2576   2.102   1.197   0.121  0.5248 -1.8774 -0.6668
  799SOL     OW 2577   1.129   2.728   0.875  0.1001 -0.1043  0.2444
  799SOL    HW1 2578   1.181   2.733   0.789  0.7077  0.2694  0.6223
  799SOL    HW2 2579   1.192   2.738   0.951 -0.6729  1.5033  0.7012
  800SOL     OW 2580   1.612   0.202   1.766 -0.1206 -0.3835  0.2683
  800SOL    HW1 2581   1.539   0.269   1.750 -0.8148 -1.1357  0.1682
  800SOL    HW2 2582   1.623   0.189   1.864 -1.5279 -1.7071  0.2979
  801SOL     OW 2583   0.712   0.619   1.484  0.2032 -0.0918  1.0548
  801SOL    HW1 2584   0.798   0.592   1.525 -0.0437 -2.4196  0.1707
  801SOL    HW2 2585   0.719   0.610   1.385 -0.6136  1.1345  0.8622
  802SOL     OW 2586   1.496   3.493   1.939 -0.6344  0.0635  0.4698
  802SOL    HW1 2587   1.426   3.556   1.904  0.2999  1.7697  1.5330
  802SOL    HW2 2588   1.580   3.508   1.888 -0.5071 -0.6054  0.4849
  803SOL     OW 2589   3.212   1.238   0.809  0.1895  0.1687 -0.3028
  803SOL    HW1 2590   3.173   1.326   0.836  1.3411  1.0907 -1.5407
  803SOL    HW2 2591   3.206   1.175   0.886  0.0858  1.5820  0.8883
  804SOL     OW 2592   1.614   0.598   0.991 -0.0061  0.0626 -0.1260
  804SOL    HW1 2593   1.710   0.571   0.989 -0.2096 -0.6106 -1.5340
  804SOL    HW2 2594   1.557   0.517   1.002 -0.5012  0.2259 -1.3741
  805SOL     OW 2595   1.563   2.138   0.501  0.3954 -0.0845  0.0598
  805SOL    HW1 2596   1.537   2.114   0.408  1.0634 -0.2449 -0.0964
  805SOL    HW2 2597   1.615   2.223   0.500  1.3312 -0.6396  0.1475
  806SOL     OW 2598   2.965   2.399   1.762 -0.2794  0.2645 -0.0125
  806SOL    HW1 2599   2.980   2.315   1.710 -0.5409 -0.1092  0.5064
  806SOL    HW2 2600   2.974   2.478   1.701  0.5151 -0.1089 -0.3893
  807SOL     OW 2601   2.321   3.576   2.984  0.1255  0.8764 -0.4740
  807SOL    HW1 2602   2.247   3.609   3.042  0.9530  0.3948  0.8956
  807SOL    HW2 2603   2.294   3.489   2.943  0.4997 -0.1245  1.3006
  808SOL     OW 2604   2.593   3.263   0.236  0.6339 -0.4785  0.2237
  808SOL    HW1 2605   2.512   3.223   0.193  1.3354 -1.3586 -0.3213
  808SOL    HW2 2606   2.632   3.333   0.176 -0.1085  0.4608  0.8024
  809SOL     OW 2607   1.989   3.287   1.563  0.3724  0.8159 -0.5737
  809SOL    HW1 2608   1.967   3.249   1.653 -2.9406  0.1754 -1.5142
  809SOL    HW2 2609   1.946   3.230   1.492  1.3628  2.3211 -2.4807
  810SOL     OW 2610   1.328   2.878   2.025  0.3479 -0.2515 -0.2614
  810SOL    HW1 2611   1.396   2.837   2.086  1.9426  2.8456  0.2472
  810SOL    HW2 2612   1.348   2.852   1.930  2.7045  1.0157 -0.1866
  811SOL     OW 2613   1.579   1.458   1.108 -0.0981 -0.1953 -0.0079
  811SOL    HW1 2614   1.648   1.501   1.051  0.8700 -1.9282 -0.1990
  811SOL    HW2 2615   1.620   1.383   1.159 -0.7253  1.6786  3.6018
  812SOL     OW 2616   3.123   0.091   0.537  0.0229 -0.2629 -0.5073
  812SOL    HW1 2617   3.142  -0.007   0.547  0.2626 -0.5354 -3.0347
  812SOL    HW2 2618   3.025   0.107   0.546 -0.1221 -0.8637 -0.9845
  813SOL     OW 2619   0.296   1.039   0.997 -0.0385  0.6031  0.0179
  813SOL    HW1 2620   0.365   1.057   0.927 -0.5010  1.3132 -0.2698
  813SOL    HW2 2621   0.287   0.940   1.010 -1.3108  0.3302 -2.3522
  814SOL     OW 2622   0.524   0.751   0.658 -0.0216  1.0070 -0.4393
  814SOL    HW1 2623   0.433   0.769   0.693  0.1949  0.6753  0.3195
  814SOL    HW2 2624   0.519   0.737   0.559 -0.6335  2.0109 -0.5607
  815SOL     OW 2625   3.138   0.611   2.002  0.1979  0.3328 -0.7510
  815SOL    HW1 2626   3.093   0.545   2.062  1.2716 -0.4775 -0.8104
  815SOL    HW2 2627   3.093   0.700   2.012  0.3756  0.2398  1.2870
  816SOL     OW 2628   2.154   1.189   1.324  0.1404 -0.3521  0.7156
  816SOL    HW1 2629   2.202   1.148   1.402  0.5305 -1.2713  0.0043
  816SOL    HW2 2630   2.211   1.262   1.286  0.8003 -1.1484  0.1448
  817SOL     OW 2631   0.344   2.065   1.450  0.5494  0.0439 -0.4486
  817SOL    HW1 2632   0.385   2.133   1.389  2.0861  0.7015  1.2367
  817SOL    HW2 2633   0.401   2.055   1.531 -0.7034 -1.8295  0.2669
  818SOL     OW 2634   3.078   3.108   0.810  0.2313  0.1919 -0.5325
  818SOL    HW1 2635   3.092   3.161   0.894  0.2740  1.3555 -1.2423
  818SOL    HW2 2636   2.982   3.115   0.782 -0.0951 -1.3348  0.1460
  819SOL     OW 2637   0.051   1.875   2.747  0.2060  0.5455 -0.2455
  819SOL    HW1 2638   0.075   1.826   2.831 -1.1982  0.7340  0.2983
  819SOL    HW2 2639   0.084   1.823   2.668  2.6416  0.9561  0.3947
  820SOL     OW 2640   1.056   2.353   1.919 -0.2246  0.5400  0.0854
  820SOL    HW1 2641   1.082   2.396   1.832 -1.0872 -0.7919 -0.8619
  820SOL    HW2 2642   0.968   2.390   1.948 -0.1228  0.6982  0.1952
  821SOL     OW 2643   1.979   3.215   0.351 -0.8624  0.2826 -0.0598
  821SOL    HW1 2644   1.958   3.272   0.271  0.9059  1.3460  0.1735
  821SOL    HW2 2645   2.077   3.222   0.371 -1.4978  1.4845  3.2348
  822SOL     OW 2646   2.892   2.235   0.011  0.0770 -0.0021 -0.0607
  822SOL    HW1 2647   2.983   2.237   0.053 -0.9793  0.6942  2.3313
  822SOL    HW2 2648   2.824   2.260   0.079 -2.1689 -2.4865 -1.2368
  823SOL     OW 2649   0.287   1.507   0.767 -0.1001  0.4845 -0.2623
  823SOL    HW1 2650   0.281   1.525   0.865 -0.5120  0.8272 -0.3514
  823SOL    HW2 2651   0.222   1.436   0.742 -0.7330  1.1301 -0.4661
  824SOL     OW 2652   1.895   1.230   2.383 -0.4904 -0.1138 -0.6484
  824SOL    HW1 2653   1.795   1.229   2.371 -0.6214 -1.4048  0.3621
  824SOL    HW2 2654   1.925   1.140   2.413  0.8567  0.5550  0.0698
  825SOL     OW 2655   1.837   1.199   1.486 -0.4425  0.1324 -0.2234
  825SOL    HW1 2656   1.887   1.164   1.565 -0.1128  0.3838 -0.3173
  825SOL    HW2 2657   1.902   1.232   1.418 -0.7386  1.7508  0.2408
  826SOL     OW 2658   1.095   3.352   2.962 -0.3624 -0.2027  0.5131
  826SOL    HW1 2659   1.163   3.377   3.030  1.1342  1.1519 -1.3395
  826SOL    HW2 2660   1.032   3.429   2.950 -0.4008 -0.2898  0.1430
  827SOL     OW 2661   1.611   3.246   2.846  0.2437  0.2519  0.1995
  827SOL    HW1 2662   1.514   3.221   2.840  0.6307 -1.0500 -0.8523
  827SOL    HW2 2663   1.665   3.164   2.865  1.3744  0.5347 -1.6056
  828SOL     OW 2664   0.314   2.376   2.200 -0.2636 -0.5131 -0.3742
  828SOL    HW1 2665   0.287   2.427   2.118  1.4995  1.3202  0.1078
  828SOL    HW2 2666   0.232   2.354   2.253 -1.1700  1.5650 -0.8034
  829SOL     OW 2667   2.999   0.384   0.275  0.0781  0.2164 -0.0949
  829SOL    HW1 2668   2.939   0.370   0.196  0.7287  1.6524 -0.8703
  829SOL    HW2 2669   2.944   0.415   0.353 -0.5335 -0.9954 -0.0257
  830SOL     OW 2670   0.391   3.529   2.906 -0.0410  0.9126 -0.0354
  830SOL    HW1 2671   0.319   3.582   2.949 -1.5528 -0.0454 -1.2955
  830SOL    HW2 2672   0.459   3.591   2.866 -0.9095  1.8689 -0.0546
  831SOL     OW 2673   1.711   3.091   0.717  0.1703  0.4555  0.1916
  831SOL    HW1 2674   1.764   3.024   0.665  1.3219  0.8517  0.8127
  831SOL    HW2 2675   1.615   3.067   0.713  0.5990 -1.6104  0.8728
  832SOL     OW 2676   0.834   3.513   1.897 -0.1340  0.5050  0.0001
  832SOL    HW1 2677   0.744   3.537   1.861 -0.2097 -1.8225 -1.6076
  832SOL    HW2 2678   0.905   3.538   1.830  0.2127  0.4259  0.3306
  833SOL     OW 2679   2.467   0.718   0.729  0.2775  0.5491 -0.2144
  833SOL    HW1 2680   2.475   0.780   0.806  1.7269  0.6605 -0.4304
  833SOL    HW2 2681   2.556   0.677   0.710 -0.3209 -0.4339 -1.0453
  834SOL     OW 2682   0.960   1.282   1.023 -0.2620 -0.1030  0.0448
  834SOL    HW1 2683   0.989   1.284   0.927 -2.3173  1.6921 -0.6214
  834SOL    HW2 2684   1.039   1.298   1.081  0.5868  1.7036 -1.5095
  835SOL     OW 2685   1.907   2.457   0.181  0.5846 -0.0167 -0.3271
  835SOL    HW1 2686   1.962   2.534   0.212  0.8789 -0.5256  0.4407
  835SOL    HW2 2687   1.911   2.452   0.081  1.7311  0.1051 -0.2990
  836SOL     OW 2688   1.771   0.470   2.299  0.3366  0.6700 -0.3337
  836SOL    HW1 2689   1.804   0.450   2.207 -2.7096 -1.5536 -1.1090
  836SOL    HW2 2690   1.690   0.529   2.293 -0.3897 -0.1657  0.8158
  837SOL     OW 2691   1.483   0.589   0.027  0.3730  0.1888  0.1964
  837SOL    HW1 2692   1.573   0.558  -0.005  0.6053  0.2080  0.8111
  837SOL    HW2 2693   1.494   0.637   0.114 -0.3383 -0.6292  0.7607
  838SOL     OW 2694   1.454   1.894   0.928 -0.3389 -0.0304  0.1694
  838SOL    HW1 2695   1.414   1.984   0.907 -2.0379 -0.9108 -0.4895
  838SOL    HW2 2696   1.394   1.845   0.990 -0.0586 -1.2264 -0.4891
  839SOL     OW 2697   1.544   0.482   3.005  0.1557 -0.0870  0.4070
  839SOL    HW1 2698   1.453   0.522   2.992 -0.1640 -1.0874 -0.6493
  839SOL    HW2 2699   1.596   0.493   2.921  0.8624  0.0895  0.8640
  840SOL     OW 2700   1.972   2.042   0.654 -0.2402  0.6032  0.3920
  840SOL    HW1 2701   2.038   1.972   0.680 -1.7384 -0.5172  1.3449
  840SOL    HW2 2702   1.889   1.998   0.621 -0.5976  1.9723 -0.6074
  841SOL     OW 2703   1.371   3.055   1.143 -0.2821  0.0215  0.6949
  841SOL    HW1 2704   1.308   3.088   1.213  1.1574  0.6881  1.7225
  841SOL    HW2 2705   1.384   3.127   1.074 -1.6453 -0.6098 -0.2742
  842SOL     OW 2706   2.786   2.030   2.022  0.9331 -0.6469 -0.2771
  842SOL    HW1 2707   2.801   2.111   1.965 -0.5362 -0.7573 -0.8454
  842SOL    HW2 2708   2.697   2.036   2.066  1.0672 -1.6803  0.1613
  843SOL     OW 2709   0.336   0.777   1.061  0.0114 -0.8868  0.3438
  843SOL    HW1 2710   0.351   0.689   1.016  1.1256 -0.6501  0.2299
  843SOL    HW2 2711   0.311   0.761   1.157  1.1613 -1.3052  0.5810
  844SOL     OW 2712   3.192   1.302   2.040  0.1899  0.2283  0.5819
  844SOL    HW1 2713   3.187   1.235   2.114  0.6181  0.3686  0.7422
  844SOL    HW2 2714   3.241   1.383   2.073  0.2647  0.3454  0.1820
  845SOL     OW 2715   2.745   1.279   2.052  0.2143 -0.2915 -0.4218
  845SOL    HW1 2716   2.683   1.357   2.051  0.9820  0.3518  0.4459
  845SOL    HW2 2717   2.822   1.297   1.990 -0.3562 -1.0231 -1.3794
  846SOL     OW 2718   2.503   1.041   0.787  0.4536 -0.4064  0.0503
  846SOL    HW1 2719   2.501   0.961   0.846  0.3220 -0.3252  0.1557
  846SOL    HW2 2720   2.410   1.073   0.770  0.4285 -0.9193 -0.8752
  847SOL     OW 2721   2.442   0.307   2.582  0.5230 -0.0231  0.4141
  847SOL    HW1 2722   2.360   0.265   2.542  0.2025  0.6051  0.4004
  847SOL    HW2 2723   2.471   0.253   2.661  0.6403 -0.7719 -0.1191
  848SOL     OW 2724   3.262   2.173   0.699 -0.3879  0.7416  0.5112
  848SOL    HW1 2725   3.215   2.160   0.612 -0.5471  3.3324  0.1169
  848SOL    HW2 2726   3.354   2.209   0.681 -0.3426  1.0936  1.3956
  849SOL     OW 2727   1.975   2.896   0.670  0.0031 -0.3686  0.0275
  849SOL    HW1 2728   1.962   2.823   0.736 -2.3059  0.4026  0.5080
  849SOL    HW2 2729   1.929   2.872   0.584  0.4246 -0.0638 -0.2930
  850SOL     OW 2730   1.308   1.141   2.429 -0.4918 -0.7546 -0.2995
  850SOL    HW1 2731   1.216   1.177   2.417  0.2931  0.5581 -3.1720
  850SOL    HW2 2732   1.369   1.214   2.458 -0.0407 -1.2429  0.0037
  851SOL     OW 2733   2.224   2.125   1.231 -0.4452  0.1510 -0.2066
  851SOL    HW1 2734   2.182   2.035   1.246  1.4101 -0.3834  2.4452
  851SOL    HW2 2735   2.162   2.196   1.264 -1.2091 -0.2466 -0.7529
  852SOL     OW 2736   2.545   3.201   3.247  0.0734  0.5798  0.3732
  852SOL    HW1 2737   2.510   3.282   3.293  0.1139  0.2695  0.9657
  852SOL    HW2 2738   2.561   3.221   3.150 -1.2777  0.8649  0.2019
  853SOL     OW 2739   2.777   1.290   1.426 -0.3119  0.5477 -0.0007
  853SOL    HW1 2740   2.723   1.229   1.368 -0.2866 -0.4997  1.0342
  853SOL    HW2 2741   2.716   1.356   1.469 -0.1599  2.3176 -2.3002
  854SOL     OW 2742   1.051   0.976   1.062  0.5615 -0.3534 -0.3164
  854SOL    HW1 2743   1.041   1.069   1.024  0.5305 -0.5367 -0.7625
  854SOL    HW2 2744   1.017   0.910   0.995 -0.9066 -0.6002  0.6223
  855SOL     OW 2745   2.316   2.411   2.152 -0.2025 -0.0180  0.0668
  855SOL    HW1 2746   2.252   2.476   2.193 -0.4377  0.4790 -1.0531
  855SOL    HW2 2747   2.356   2.452   2.070  0.8107 -0.7058  0.2006
  856SOL     OW 2748   0.560   1.097   1.749 -0.2592 -0.3482  0.0751
  856SOL    HW1 2749   0.551   1.005   1.710 -1.5488 -0.0477 -0.3678
  856SOL    HW2 2750   0.523   1.164   1.685 -1.1648  0.2979  1.2364
  857SOL     OW 2751   0.840   0.416   0.692 -0.4052  0.3169 -0.3193
  857SOL    HW1 2752   0.854   0.344   0.761  1.8674 -0.4338 -1.4636
  857SOL    HW2 2753   0.782   0.380   0.619  1.0472 -0.5359 -1.0816
  858SOL     OW 2754   0.494   2.774   1.385  0.0778 -0.0742  0.1723
  858SOL    HW1 2755   0.494   2.744   1.290 -1.4519 -0.5184  0.2873
  858SOL    HW2 2756   0.577   2.741   1.430  0.6787 -0.0964 -0.9296
  859SOL     OW 2757   0.259   1.482   1.316  0.0652 -0.8455 -0.4609
  859SOL    HW1 2758   0.244   1.552   1.386 -1.1103 -0.9262 -0.5995
  859SOL    HW2 2759   0.340   1.428   1.339  1.8342  1.4191 -1.0822
  860SOL     OW 2760   0.740   2.149   0.186 -0.6732  0.1342  0.4459
  860SOL    HW1 2761   0.701   2.104   0.267 -0.7298  1.5051  1.2138
  860SOL    HW2 2762   0.689   2.234   0.169  0.8100  1.0405  0.3748
  861SOL     OW 2763   0.368   1.862   2.404 -0.1910  0.3021 -0.3180
  861SOL    HW1 2764   0.351   1.954   2.438 -0.3149  0.2897 -0.3470
  861SOL    HW2 2765   0.313   1.796   2.456 -1.2506  0.3942 -1.2691
  862SOL     OW 2766   2.607   0.579   1.465 -0.2629  0.0316  0.0666
  862SOL    HW1 2767   2.523   0.538   1.501 -0.4371 -0.6125 -1.0022
  862SOL    HW2 2768   2.584   0.666   1.420 -0.9288 -1.4391 -2.7272
  863SOL     OW 2769   3.300   1.892   3.204  0.2761  0.0826 -0.2250
  863SOL    HW1 2770   3.211   1.937   3.217  0.5462  0.1038  1.8458
  863SOL    HW2 2771   3.295   1.832   3.124 -1.5312  0.2578 -0.2879
  864SOL     OW 2772   1.164   0.241   1.769 -0.0289  0.2947 -0.1092
  864SOL    HW1 2773   1.085   0.219   1.828 -1.1792  2.5207 -0.7325
  864SOL    HW2 2774   1.214   0.317   1.809  0.0623  0.8363 -1.2327
  865SOL     OW 2775   0.045   0.174   2.412  0.0511 -1.0070 -0.1569
  865SOL    HW1 2776   0.027   0.188   2.510  0.9694  0.2561 -0.1413
  865SOL    HW2 2777  -0.022   0.109   2.375  0.1498 -2.0933  1.4642
  866SOL     OW 2778   2.694   0.594   1.832 -0.4626 -0.5150 -0.3912
  866SOL    HW1 2779   2.624   0.662   1.813  1.3077  2.4786  2.6964
  866SOL    HW2 2780   2.711   0.591   1.930  0.8072 -4.2716 -0.5810
  867SOL     OW 2781   0.420   0.969   1.406  0.2251  0.1199 -0.1833
  867SOL    HW1 2782   0.485   0.925   1.468 -0.2044 -0.4931 -0.1568
  867SOL    HW2 2783   0.470   1.019   1.336  0.7171  0.8988  0.7101
  868SOL     OW 2784   0.034   2.887   2.339  0.1087 -0.6098 -0.8124
  868SOL    HW1 2785  -0.031   2.816   2.367 -0.0271 -0.5900 -1.0798
  868SOL    HW2 2786  -0.002   2.934   2.259 -0.2190  0.3469 -0.1181
  869SOL     OW 2787   1.143   0.124   2.474  0.0562 -0.5332 -0.7622
  869SOL    HW1 2788   1.104   0.033   2.461  0.9755 -0.8317 -1.5156
  869SOL    HW2 2789   1.227   0.132   2.421  0.2368  0.6027 -0.3372
  870SOL     OW 2790   0.713   1.578   3.038  0.3861  0.4488  0.4688
  870SOL    HW1 2791   0.655   1.592   3.117 -0.0926  0.2796  0.1526
  870SOL    HW2 2792   0.688   1.642   2.965 -0.1323 -0.3321 -0.0575
  871SOL     OW 2793   0.152   1.266   1.595  0.2377  0.2674 -0.3042
  871SOL    HW1 2794   0.148   1.177   1.639 -0.8700  0.4337 -0.0266
  871SOL    HW2 2795   0.136   1.337   1.664  4.2890  0.9695  0.1635
  872SOL     OW 2796   2.197   2.439   1.695  0.5123 -0.2000 -0.4253
  872SOL    HW1 2797   2.216   2.528   1.738 -0.6616 -0.9399  1.7847
  872SOL    HW2 2798   2.109   2.444   1.648  0.0924 -0.3831  0.3293
  873SOL     OW 2799   0.501   1.691   1.371  0.2204  0.0042  0.2516
  873SOL    HW1 2800   0.500   1.592   1.360  0.3213 -0.1971  1.8020
  873SOL    HW2 2801   0.409   1.722   1.393  0.6672 -0.1636  2.6548
  874SOL     OW 2802   3.518   1.991   2.271  0.3079  0.3391  0.5446
  874SOL    HW1 2803   3.587   2.017   2.338  0.9264 -0.5980  0.2796
  874SOL    HW2 2804   3.459   2.070   2.253  2.3808  1.7473 -0.5349
  875SOL     OW 2805   3.399   1.002   0.563 -0.0348 -0.0201  0.2489
  875SOL    HW1 2806   3.314   1.051   0.542  0.8044  0.5643 -2.0264
  875SOL    HW2 2807   3.379   0.932   0.632 -3.0299 -1.7387 -2.1131
  876SOL     OW 2808   0.533   1.407   1.375  0.5769  0.2284 -0.1063
  876SOL    HW1 2809   0.607   1.359   1.328  0.6590 -0.9281  1.1291
  876SOL    HW2 2810   0.484   1.342   1.434 -1.1665  1.0534 -0.5626
  877SOL     OW 2811   2.535   2.804   0.706 -0.1135  0.4728  0.3060
  877SOL    HW1 2812   2.632   2.814   0.682  0.6382  2.8863  3.7094
  877SOL    HW2 2813   2.523   2.822   0.803 -4.1939  1.4022 -0.2012
  878SOL     OW 2814   0.136   2.445   1.266 -0.3973  0.7686 -0.0607
  878SOL    HW1 2815   0.147   2.514   1.338 -1.4604 -0.5660  1.4533
  878SOL    HW2 2816   0.197   2.368   1.286 -0.6609  0.4109 -0.6236
  879SOL     OW 2817   2.276   0.624   0.337  0.3750  0.4001 -0.3923
  879SOL    HW1 2818   2.237   0.674   0.260 -0.0113  2.8158  1.2843
  879SOL    HW2 2819   2.322   0.688   0.398  1.6748 -1.5965  0.8344
  880SOL     OW 2820   1.251   2.124   1.702  0.2525 -0.2573 -0.3766
  880SOL    HW1 2821   1.184   2.060   1.740 -0.7684  0.5850 -0.6947
  880SOL    HW2 2822   1.280   2.187   1.775 -0.4136  0.2847 -0.5676
  881SOL     OW 2823   3.075   0.546   0.715  0.5869  0.3345  0.4505
  881SOL    HW1 2824   3.053   0.643   0.722  1.5885  0.6810 -0.7437
  881SOL    HW2 2825   3.012   0.502   0.652  0.9784  0.5302 -0.0916
  882SOL     OW 2826   3.473   0.037   2.202  0.1128  0.4542 -0.3183
  882SOL    HW1 2827   3.453   0.134   2.193  1.6879  0.7942 -0.4521
  882SOL    HW2 2828   3.458  -0.007   2.113  1.0605  0.9239 -0.7277
  883SOL     OW 2829   1.396   0.700   1.888  0.3427  0.6131  0.1780
  883SOL    HW1 2830   1.402   0.725   1.791 -0.1287 -2.2800 -0.7196
  883SOL    HW2 2831   1.488   0.696   1.927  0.6545  0.4739 -0.5560
  884SOL     OW 2832   1.212   1.439   0.697 -0.0951  0.5109  0.5453
  884SOL    HW1 2833   1.262   1.465   0.779 -0.2092  1.1845  0.4090
  884SOL    HW2 2834   1.258   1.362   0.653 -0.1519  0.0066  1.3505
  885SOL     OW 2835   3.524   3.417   3.300 -0.3682  0.2725 -0.4286
  885SOL    HW1 2836   3.575   3.501   3.319 -0.8914  0.9892 -1.9946
  885SOL    HW2 2837   3.548   3.384   3.209 -1.8591  0.0244 -0.7618
  886SOL     OW 2838   0.399   1.861   0.293 -0.1795  0.5175 -0.2828
  886SOL    HW1 2839   0.365   1.792   0.229  0.9366  1.0631 -1.5230
  886SOL    HW2 2840   0.337   1.868   0.370 -1.1326 -0.7655 -0.8995
  887SOL     OW 2841   0.901   3.116   1.745 -0.0263  0.3495 -0.3769
  887SOL    HW1 2842   0.841   3.096   1.667  1.0337 -0.7706 -0.9291
  887SOL    HW2 2843   0.888   3.046   1.815 -0.3911  0.9132  0.1348
  888SOL     OW 2844   1.999   0.988   2.449 -0.1638 -0.1582 -0.2449
  888SOL    HW1 2845   1.932   0.941   2.507 -0.4175 -2.0532 -1.9419
  888SOL    HW2 2846   2.089   0.981   2.491 -0.5804 -0.0807  0.6895
  889SOL     OW 2847   3.053   1.455   0.345 -0.1272  0.4364 -0.2786
  889SOL    HW1 2848   2.973   1.496   0.301 -0.7202  0.5140  0.8368
  889SOL    HW2 2849   3.074   1.368   0.300 -1.9682 -0.4844  0.5083
  890SOL     OW 2850   3.333   0.757   0.245  0.3057  0.0906  0.3372
  890SOL    HW1 2851   3.291   0.814   0.173 -0.3326 -0.9513 -0.1370
  890SOL    HW2 2852   3.260   0.710   0.295  0.8515 -0.8105  0.2963
  891SOL     OW 2853   2.042   0.435   2.423 -0.6422  0.0455 -0.1907
  891SOL    HW1 2854   1.962   0.456   2.367 -0.9761  0.2917  0.3704
  891SOL    HW2 2855   2.060   0.511   2.485 -0.2545 -0.2029  0.0052
  892SOL     OW 2856   0.811   2.512   1.912  0.7049  0.3173 -0.3491
  892SOL    HW1 2857   0.741   2.454   1.954  0.1721 -0.4566 -2.2074
  892SOL    HW2 2858   0.806   2.603   1.952 -1.8889  0.5020 -0.9226
  893SOL     OW 2859   0.949   2.113   2.838 -0.3779  0.2882 -0.0733
  893SOL    HW1 2860   0.903   2.095   2.925  1.1036 -0.9224  0.5047
  893SOL    HW2 2861   0.919   2.046   2.770  2.6859 -2.6646  1.1743
  894SOL     OW 2862   2.569   2.214   0.969  0.4134 -0.1840  0.4560
  894SOL    HW1 2863   2.649   2.261   1.005  0.4121  0.0793  0.1178
  894SOL    HW2 2864   2.486   2.260   1.000  0.4040 -0.1897  0.4392
  895SOL     OW 2865   1.734   0.507   3.592 -0.3408  0.1108 -0.3265
  895SOL    HW1 2866   1.763   0.433   3.532 -0.3432  0.2328 -0.4782
  895SOL    HW2 2867   1.810   0.531   3.653  0.3191  1.2575 -1.5415
  896SOL     OW 2868   0.861   2.431   1.662 -0.2067  0.1857 -0.4887
  896SOL    HW1 2869   0.847   2.445   1.760 -1.5905  0.4806 -0.7149
  896SOL    HW2 2870   0.787   2.474   1.611 -0.8187 -1.9646 -1.5570
  897SOL     OW 2871   3.320   3.587   2.495 -0.5944 -0.2754  0.6401
  897SOL    HW1 2872   3.233   3.635   2.498  0.1281  1.4281 -1.9074
  897SOL    HW2 2873   3.313   3.508   2.434 -0.2730  0.1983 -0.0356
  898SOL     OW 2874   0.180   2.170   3.070 -0.3654  0.7767 -0.1779
  898SOL    HW1 2875   0.254   2.177   3.137 -0.2999 -0.9116 -0.0454
  898SOL    HW2 2876   0.218   2.188   2.979  0.7474 -2.1268 -0.3792
  899SOL     OW 2877   0.582   0.346   2.542  0.5612  0.8641  0.2557
  899SOL    HW1 2878   0.607   0.360   2.638  1.7184 -0.6445  0.2188
  899SOL    HW2 2879   0.624   0.261   2.510 -0.2824  1.0517 -1.4325
  900SOL     OW 2880   0.321   0.055   2.030  0.1259 -0.7146  0.0776
  900SOL    HW1 2881   0.232   0.087   1.997 -0.6993 -1.0320  1.8799
  900SOL    HW2 2882   0.383   0.134   2.039 -0.4282 -0.2831  0.1440
  901SOL     OW 2883   3.448   1.253   0.657  0.5647 -0.9176  0.4111
  901SOL    HW1 2884   3.374   1.266   0.724  2.1429 -1.8690  2.4802
  901SOL    HW2 2885   3.453   1.156   0.633  0.7683 -0.7612 -0.1727
  902SOL     OW 2886   1.642   3.510   2.791 -0.0363  0.1448 -0.2578
  902SOL    HW1 2887   1.638   3.412   2.808  0.3299  0.0626 -0.6279
  902SOL    HW2 2888   1.591   3.558   2.862  1.3240 -0.1815  0.9776
  903SOL     OW 2889   3.525   3.264   1.831  0.6871 -0.4529  0.7121
  903SOL    HW1 2890   3.429   3.252   1.857  0.7603 -1.1061  0.7021
  903SOL    HW2 2891   3.539   3.226   1.740  0.7639  0.4617  0.3275
  904SOL     OW 2892   0.290   0.452   1.496  0.7190 -0.3315  0.4401
  904SOL    HW1 2893   0.318   0.393   1.572  0.5727 -0.6264  0.2696
  904SOL    HW2 2894   0.265   0.394   1.418 -1.4953 -0.1420  0.9576
  905SOL     OW 2895   0.228   2.044   3.524  0.1215 -0.1333  0.0879
  905SOL    HW1 2896   0.324   2.035   3.552  0.6999 -0.5503 -1.9044
  905SOL    HW2 2897   0.206   1.974   3.456 -1.0045  1.2233 -1.0003
  906SOL     OW 2898   1.744   0.787   1.575  0.1760 -0.1421 -0.0299
  906SOL    HW1 2899   1.748   0.859   1.644  1.0187 -1.4828  1.3862
  906SOL    HW2 2900   1.801   0.710   1.604  0.7079 -0.6990 -2.3161
  907SOL     OW 2901   1.503   2.641   1.146 -0.5575 -0.4785  0.1351
  907SOL    HW1 2902   1.426   2.695   1.111  0.1697  0.6583  0.2412
  907SOL    HW2 2903   1.543   2.589   1.071  0.0698  0.8100 -0.4559
  908SOL     OW 2904   0.073   3.008   2.834 -0.0929 -0.5768 -0.1571
  908SOL    HW1 2905   0.154   2.950   2.836 -0.3407 -0.9079  0.5501
  908SOL    HW2 2906   0.050   3.028   2.738  0.9456 -0.2864 -0.3628
  909SOL     OW 2907   0.926   2.736   3.484 -0.0701 -0.2930  0.3894
  909SOL    HW1 2908   0.858   2.718   3.555 -0.2295 -0.4425  0.2007
  909SOL    HW2 2909   0.988   2.808   3.515 -0.1388 -0.3596  0.6790
  910SOL     OW 2910   2.187   2.166   2.051 -0.0463 -0.0661 -0.5713
  910SOL    HW1 2911   2.122   2.195   1.981  0.0063  1.4649 -0.0196
  910SOL    HW2 2912   2.216   2.245   2.104  0.1770 -1.1324  0.9759
  911SOL     OW 2913   2.608   0.667   2.427  0.2630 -0.0209 -0.6658
  911SOL    HW1 2914   2.694   0.699   2.389 -0.4017  1.0684 -1.3267
  911SOL    HW2 2915   2.595   0.570   2.405  0.9661  0.0044 -1.2119
  912SOL     OW 2916   0.889   2.844   0.976 -0.2899 -0.4807 -0.1303
  912SOL    HW1 2917   0.978   2.805   0.950  0.8764  1.9983 -0.1344
  912SOL    HW2 2918   0.845   2.882   0.895 -0.3613  0.1834  0.2180
  913SOL     OW 2919   2.927   2.640   0.611 -0.2543  0.2294 -0.0280
  913SOL    HW1 2920   2.985   2.624   0.691 -1.6105 -0.7400  0.7936
  913SOL    HW2 2921   2.871   2.721   0.627  0.6871  1.0436 -0.7355
  914SOL     OW 2922   0.382   1.330   2.633 -0.4276 -0.2216 -0.2749
  914SOL    HW1 2923   0.321   1.409   2.635 -0.7933 -0.3053 -3.4845
  914SOL    HW2 2924   0.468   1.354   2.677 -0.4718  2.0590 -1.2983
  915SOL     OW 2925   2.421   2.714   3.312  0.5051  0.0995 -0.4193
  915SOL    HW1 2926   2.493   2.698   3.379 -1.2632  0.4626  1.6765
  915SOL    HW2 2927   2.396   2.811   3.313 -1.2155 -0.3104  0.2379
  916SOL     OW 2928   2.187   3.002   2.277  0.1251  0.4292 -0.3745
  916SOL    HW1 2929   2.241   3.085   2.289 -0.6473  0.9882 -0.6731
  916SOL    HW2 2930   2.248   2.924   2.266  0.8756  0.7473  1.2405
  917SOL     OW 2931   0.749   3.214   1.181  0.1158 -0.3465  0.5294
  917SOL    HW1 2932   0.844   3.216   1.212  0.3361  1.0745 -0.1541
  917SOL    HW2 2933   0.689   3.191   1.257  0.8634  0.4259  1.3655
  918SOL     OW 2934   2.239   3.021   0.668 -0.1068 -0.2643  0.6670
  918SOL    HW1 2935   2.286   2.987   0.587  0.2376 -0.3142  0.8903
  918SOL    HW2 2936   2.143   2.992   0.665 -0.3483  0.5483 -0.2129
  919SOL     OW 2937   2.724   3.454   3.389 -0.1493 -0.5803  0.1658
  919SOL    HW1 2938   2.763   3.362   3.388 -0.6228 -0.7829 -0.8224
  919SOL    HW2 2939   2.625   3.448   3.375 -0.0734  0.1115 -0.8281
  920SOL     OW 2940   0.997   2.151   0.262 -0.1514  0.1126 -0.0672
  920SOL    HW1 2941   1.012   2.248   0.279  0.4953  0.2088 -1.0554
  920SOL    HW2 2942   0.934   2.140   0.185 -0.1538 -0.2491 -0.0180
  921SOL     OW 2943   0.879   1.722   0.023  0.0178  0.3136  0.1517
  921SOL    HW1 2944   0.861   1.667  -0.058  4.3476 -2.4294  0.7231
  921SOL    HW2 2945   0.859   1.668   0.105  2.2495  0.2986  0.7511
  922SOL     OW 2946   2.570   2.780   1.381  0.3409  0.1134  0.8089
  922SOL    HW1 2947   2.474   2.800   1.402  0.7398  0.4877  2.3890
  922SOL    HW2 2948   2.613   2.736   1.459  1.3899 -0.3476  0.0021
  923SOL     OW 2949   2.455   2.298   0.129 -0.1476  0.2165  0.2128
  923SOL    HW1 2950   2.549   2.329   0.142 -0.2095  1.3735 -1.7399
  923SOL    HW2 2951   2.395   2.349   0.189  0.1835  1.4227 -0.4363
  924SOL     OW 2952   2.661   0.231   0.794 -0.3143 -0.3166  0.8414
  924SOL    HW1 2953   2.682   0.315   0.844 -1.0954  0.7234 -0.5062
  924SOL    HW2 2954   2.582   0.247   0.735 -0.6954 -2.1211  0.8191
  925SOL     OW 2955   3.077   0.745   1.577 -0.3298  0.3812 -0.3500
  925SOL    HW1 2956   2.997   0.690   1.601 -0.3429  0.8703  0.8367
  925SOL    HW2 2957   3.094   0.738   1.479  0.4320 -2.7524 -0.0949
  926SOL     OW 2958   1.439   0.945   2.299 -0.5533 -0.1728 -0.5854
  926SOL    HW1 2959   1.386   0.921   2.219 -0.7381 -0.0186 -0.5094
  926SOL    HW2 2960   1.408   1.034   2.334  0.3362  0.3391 -1.0553
  927SOL     OW 2961   0.285   0.183   2.672  0.0277  0.0265  0.7242
  927SOL    HW1 2962   0.273   0.154   2.577  2.5277  0.6116  0.1802
  927SOL    HW2 2963   0.372   0.149   2.707 -0.9627 -0.4033  2.9302
  928SOL     OW 2964   0.943   3.187   3.134 -0.5862  0.4015  0.5765
  928SOL    HW1 2965   0.865   3.171   3.073 -1.3783  2.0862  1.0888
  928SOL    HW2 2966   1.010   3.246   3.088  0.1092 -0.5111  0.3794
  929SOL     OW 2967   3.147   1.185   0.543  0.2258 -0.4882  0.5049
  929SOL    HW1 2968   3.149   1.261   0.477 -0.7629 -0.9529 -0.0940
  929SOL    HW2 2969   3.175   1.218   0.633  1.2856  0.2385 -0.0690
  930SOL     OW 2970   3.476   3.584   2.722 -0.2428 -0.2583 -0.6463
  930SOL    HW1 2971   3.502   3.680   2.729 -1.1643 -0.0878  0.9705
  930SOL    HW2 2972   3.423   3.571   2.638  0.0973  0.5820 -1.0068
  931SOL     OW 2973   3.370   0.783   2.780  0.2288  0.3613 -0.0799
  931SOL    HW1 2974   3.435   0.719   2.822 -0.4288 -1.9125 -2.3025
  931SOL    HW2 2975   3.403   0.809   2.690 -0.3491  1.8910  0.1313
  932SOL     OW 2976   3.281   3.064   1.677  0.2709 -0.6296 -0.1949
  932SOL    HW1 2977   3.359   3.007   1.649 -0.8649 -2.3107 -0.0934
  932SOL    HW2 2978   3.289   3.085   1.774  0.1660 -1.5489  0.0215
  933SOL     OW 2979   0.894   2.166   1.353  0.2453 -0.1601 -0.6765
  933SOL    HW1 2980   0.931   2.258   1.335 -0.4650  0.2327 -0.1833
  933SOL    HW2 2981   0.914   2.107   1.274  1.2058  0.2551 -0.7548
  934SOL     OW 2982   0.707   2.455   3.117 -0.0951  0.0970  0.3560
  934SOL    HW1 2983   0.758   2.532   3.154  0.8917 -0.5572  0.4134
  934SOL    HW2 2984   0.611   2.481   3.105  0.2743  1.3986  0.1158
  935SOL     OW 2985   3.133   0.613   0.401  0.0088 -0.3020  0.1071
  935SOL    HW1 2986   3.195   0.604   0.479  1.0808 -1.6633 -0.8499
  935SOL    HW2 2987   3.113   0.522   0.364 -2.2324  0.1274  0.0890
  936SOL     OW 2988   2.497   2.538   0.780  0.3563 -0.2315 -0.0251
  936SOL    HW1 2989   2.512   2.617   0.720  1.5346 -0.3967  0.0342
  936SOL    HW2 2990   2.555   2.547   0.861 -2.2922  0.7509  1.8896
  937SOL     OW 2991   0.493   1.752   2.206  0.0356 -0.1771 -0.2557
  937SOL    HW1 2992   0.576   1.808   2.203 -0.1726  0.2489  1.0714
  937SOL    HW2 2993   0.436   1.783   2.282 -1.2778 -0.5627 -1.0606
  938SOL     OW 2994   1.411   0.706   0.693 -0.6079 -0.4414 -0.0199
  938SOL    HW1 2995   1.403   0.607   0.703 -1.9840 -0.6683 -2.5646
  938SOL    HW2 2996   1.496   0.727   0.645  0.0081 -0.3017  1.0989
  939SOL     OW 2997   0.538   3.532   2.611 -0.2960 -0.2746 -0.0083
  939SOL    HW1 2998   0.483   3.590   2.551 -1.9821 -1.0256  0.7288
  939SOL    HW2 2999   0.541   3.440   2.573 -0.3333 -0.4560  0.4171
  940SOL     OW 3000   2.704   2.978   3.296  0.1009  0.1463  0.0207
  940SOL    HW1 3001   2.632   3.042   3.268  1.1199  1.6778  0.7337
  940SOL    HW2 3002   2.701   2.968   3.396  1.7770  1.4554  0.2577
  941SOL     OW 3003   3.085   2.575   2.492  0.3361  0.4186  0.2320
  941SOL    HW1 3004   2.988   2.599   2.489  0.5043  1.2143  0.8901
  941SOL    HW2 3005   3.125   2.610   2.577  1.0649 -0.4361  0.2574
  942SOL     OW 3006   1.099   2.992   0.662 -0.6839  0.6835  0.2657
  942SOL    HW1 3007   1.035   3.044   0.606 -2.0858 -2.0164 -0.8067
  942SOL    HW2 3008   1.061   2.901   0.681  2.6490 -0.9898 -0.2081
  943SOL     OW 3009   3.190   0.236   2.107  0.3097 -0.3690  0.3615
  943SOL    HW1 3010   3.146   0.265   2.022  0.0366 -1.9890 -0.0961
  943SOL    HW2 3011   3.287   0.260   2.104  0.3808 -0.7429 -0.5809
  944SOL     OW 3012   0.812   0.176   0.847  0.2941 -0.3861  0.7252
  944SOL    HW1 3013   0.868   0.163   0.928  1.2094  2.5942  0.7109
  944SOL    HW2 3014   0.728   0.224   0.872  0.2836 -0.0215  0.0356
  945SOL     OW 3015   2.795   2.383   2.248 -0.5572  0.3386 -0.4339
  945SOL    HW1 3016   2.709   2.344   2.280 -0.4955 -0.4566 -1.2122
  945SOL    HW2 3017   2.808   2.361   2.152  1.4368 -1.2230  0.1299
  946SOL     OW 3018   0.509   1.513   2.809  0.8618 -0.4121 -0.1165
  946SOL    HW1 3019   0.556   1.600   2.794  0.3817 -0.3825 -1.6617
  946SOL    HW2 3020   0.418   1.531   2.845  0.2131 -0.1317 -1.7723
  947SOL     OW 3021   0.613   0.864   1.544  0.4220  0.1292 -0.0606
  947SOL    HW1 3022   0.687   0.929   1.528  2.0054 -1.4512  0.5697
  947SOL    HW2 3023   0.646   0.771   1.526 -0.5996 -0.8646  2.6947
  948SOL     OW 3024   2.349   2.095   0.672 -0.0005  0.1530  0.5403
  948SOL    HW1 3025   2.431   2.151   0.660 -1.0192  1.1900 -2.3091
  948SOL    HW2 3026   2.298   2.128   0.752  1.3087  0.7977  1.1431
  949SOL     OW 3027   3.157   3.111   2.415 -0.6324 -0.2478 -0.0980
  949SOL    HW1 3028   3.075   3.064   2.382  0.5431 -2.6666  0.2457
  949SOL    HW2 3029   3.235   3.086   2.358 -0.3295  3.4324 -1.5458
  950SOL     OW 3030   1.943   2.903   2.779  0.0750  0.1001  0.6462
  950SOL    HW1 3031   2.023   2.878   2.834  1.0115  2.5444  0.5251
  950SOL    HW2 3032   1.971   2.917   2.684 -0.7475 -0.2323  0.3497
  951SOL     OW 3033   3.550   3.527   0.268 -0.5016 -0.5662  0.3287
  951SOL    HW1 3034   3.518   3.476   0.348 -1.0243 -2.4549 -1.0076
  951SOL    HW2 3035   3.525   3.623   0.278 -1.9252 -1.0337  1.7288
  952SOL     OW 3036   0.525   0.608   0.221  0.4663  0.2329 -0.4593
  952SOL    HW1 3037   0.449   0.547   0.243  0.5105  0.1161 -0.6319
  952SOL    HW2 3038   0.504   0.658   0.137  1.9938 -2.2786 -2.4922
  953SOL     OW 3039   0.602   2.522   2.305 -0.1741 -0.5256  0.1582
  953SOL    HW1 3040   0.656   2.596   2.266  0.3763 -0.8517  0.2823
  953SOL    HW2 3041   0.640   2.497   2.394 -0.8602 -0.4018  0.4884
  954SOL     OW 3042   0.533   0.141   2.829  0.4879 -0.7221 -0.3874
  954SOL    HW1 3043   0.613   0.089   2.797  0.0283 -1.5546 -0.2125
  954SOL    HW2 3044   0.557   0.188   2.914  0.8669 -0.7539 -0.4718
  955SOL     OW 3045   1.549   2.382   1.562 -0.6065 -0.4613  0.1589
  955SOL    HW1 3046   1.572   2.462   1.506  0.3611  0.7623  2.1700
  955SOL    HW2 3047   1.453   2.387   1.588 -0.8921 -0.6878 -0.8058
  956SOL     OW 3048   0.742   3.284   2.029 -0.1913  0.7027 -0.0368
  956SOL    HW1 3049   0.700   3.326   2.109  1.5031 -0.1046  1.3462
  956SOL    HW2 3050   0.794   3.353   1.978 -1.9114  1.3885 -0.9473
  957SOL     OW 3051   2.479   1.664   2.733 -0.7206  0.1383 -0.6539
  957SOL    HW1 3052   2.431   1.615   2.806  0.7282  2.0026  1.7408
  957SOL    HW2 3053   2.416   1.730   2.691 -1.3672 -0.4029 -0.5594
  958SOL     OW 3054   3.501   2.762   3.401  1.2232 -0.7998 -0.3607
  958SOL    HW1 3055   3.408   2.774   3.437 -0.0589 -0.3896 -3.4292
  958SOL    HW2 3056   3.509   2.669   3.363  2.0711 -0.8284 -0.1280
  959SOL     OW 3057   1.970   0.178   3.028 -0.2999  0.7859  0.4391
  959SOL    HW1 3058   1.985   0.262   2.975  1.8595 -1.2285 -2.3956
  959SOL    HW2 3059   2.046   0.165   3.091  0.2448  0.1537 -0.3318
  960SOL     OW 3060   0.007   3.339   3.049  0.0446  0.0702 -0.0564
  960SOL    HW1 3061  -0.043   3.309   2.968 -1.0938  0.3843  0.5160
  960SOL    HW2 3062   0.092   3.287   3.056 -1.3074 -2.2348  0.2715
  961SOL     OW 3063   1.022   3.093   0.906 -0.3211 -0.5372 -0.2805
  961SOL    HW1 3064   0.972   3.021   0.954  0.1019 -1.4737 -1.2108
  961SOL    HW2 3065   1.072   3.053   0.829  0.6361  0.6214 -0.2883
  962SOL     OW 3066   1.241   2.619   2.795 -0.1652  0.0133  0.2056
  962SOL    HW1 3067   1.249   2.715   2.819  0.2634  0.4754 -1.6071
  962SOL    HW2 3068   1.327   2.588   2.755 -1.4223 -0.0101 -2.7438
  963SOL     OW 3069   1.051   1.582   2.566  0.4080 -0.1816 -0.1199
  963SOL    HW1 3070   1.002   1.623   2.643  1.0654  0.8749 -0.2408
  963SOL    HW2 3071   1.100   1.501   2.597  1.6270  0.8797  0.8786
  964SOL     OW 3072   1.113   3.263   3.574 -0.3299 -0.0470  0.3571
  964SOL    HW1 3073   1.142   3.194   3.640  0.8403  1.6727  1.7378
  964SOL    HW2 3074   1.185   3.277   3.506 -1.0185 -0.9328 -0.5736
  965SOL     OW 3075   3.304   1.654   0.856  0.6631 -0.4385 -0.3824
  965SOL    HW1 3076   3.388   1.633   0.906  1.7501 -0.6561 -2.2279
  965SOL    HW2 3077   3.315   1.631   0.760 -2.4312 -2.9487 -0.3010
  966SOL     OW 3078   3.188   1.064   2.175  0.1538  0.2639  0.6704
  966SOL    HW1 3079   3.137   0.999   2.119  0.4362 -0.2839  1.0417
  966SOL    HW2 3080   3.175   1.041   2.272 -0.7907  1.5358  0.8818
  967SOL     OW 3081   0.737   2.616   0.059  0.2871  0.5416  0.2162
  967SOL    HW1 3082   0.723   2.546   0.129  1.5003  0.4408  0.3824
  967SOL    HW2 3083   0.679   2.597  -0.020 -0.3947  0.1236  0.8178
  968SOL     OW 3084   0.300   3.452   3.239 -0.4092 -0.4500  0.4484
  968SOL    HW1 3085   0.261   3.507   3.164 -0.7291 -0.7705  0.3756
  968SOL    HW2 3086   0.306   3.356   3.210  0.9725 -0.3228  0.2559
  969SOL     OW 3087   2.932   3.578   0.226 -0.0778  0.4859  0.1650
  969SOL    HW1 3088   3.005   3.567   0.159  1.6000  2.0749  1.6602
  969SOL    HW2 3089   2.930   3.672   0.258 -2.4446  0.3493  0.6064
  970SOL     OW 3090   2.317   1.170   3.006 -0.2478  0.2481  0.0648
  970SOL    HW1 3091   2.233   1.168   2.952  1.4820  0.4598 -2.8562
  970SOL    HW2 3092   2.328   1.082   3.052 -1.5925 -0.1286 -0.2886
  971SOL     OW 3093   0.883   3.516   2.978 -0.3639  0.1666 -0.7457
  971SOL    HW1 3094   0.807   3.456   3.000 -0.2303  0.1494 -0.3134
  971SOL    HW2 3095   0.924   3.550   3.063 -0.5123  0.9613 -0.9816
  972SOL     OW 3096   2.730   3.115   2.310  0.3366 -0.6079 -0.0745
  972SOL    HW1 3097   2.694   3.207   2.297 -0.6314 -1.0228 -0.4108
  972SOL    HW2 3098   2.659   3.048   2.287  1.0940 -1.4419 -0.0416
  973SOL     OW 3099   1.449   0.236   3.455  0.5309 -0.3944 -0.0069
  973SOL    HW1 3100   1.472   0.272   3.365  0.5463 -0.7994 -0.1691
  973SOL    HW2 3101   1.397   0.305   3.506  0.7980 -0.0464 -0.2030
  974SOL     OW 3102   1.044   3.115   2.829 -0.1999 -0.4140  0.4568
  974SOL    HW1 3103   1.045   3.204   2.876  0.0254 -0.7454  1.0912
  974SOL    HW2 3104   0.965   3.112   2.768  0.1437  0.4658 -0.0531
  975SOL     OW 3105   1.610   2.824   1.737  0.9815 -0.2255 -0.3346
  975SOL    HW1 3106   1.512   2.838   1.748  0.4302 -3.0781 -0.8271
  975SOL    HW2 3107   1.653   2.910   1.710 -1.0269  1.5792  1.8193
  976SOL     OW 3108   2.385   3.416   2.159  0.1445 -0.1307  0.7391
  976SOL    HW1 3109   2.368   3.514   2.169  3.2717  0.5390  0.5839
  976SOL    HW2 3110   2.431   3.399   2.071 -0.8872 -1.8734  0.4678
  977SOL     OW 3111   2.702   0.650   2.117 -0.5253  0.5049 -0.3036
  977SOL    HW1 3112   2.782   0.690   2.162  1.2670 -1.5735 -1.4416
  977SOL    HW2 3113   2.627   0.716   2.118  0.5851  1.8692  2.4263
  978SOL     OW 3114   3.126   2.241   0.925  1.1038  0.0618 -0.0313
  978SOL    HW1 3115   3.176   2.215   0.843  2.4260 -1.0329  1.0776
  978SOL    HW2 3116   3.111   2.160   0.982 -1.1904  0.5005  0.1110
  979SOL     OW 3117   0.109   1.300   0.748 -0.1003  0.0305 -0.1008
  979SOL    HW1 3118   0.029   1.292   0.689 -0.3453 -0.5656  0.3065
  979SOL    HW2 3119   0.080   1.329   0.839  0.0658 -0.8314  0.2338
  980SOL     OW 3120   1.563   1.116   3.574 -0.3297  0.1223 -0.1281
  980SOL    HW1 3121   1.485   1.177   3.588  0.3512  1.1943 -0.8970
  980SOL    HW2 3122   1.577   1.103   3.476 -2.2504 -3.6464 -0.0754
  981SOL     OW 3123   0.479   3.038   2.746 -0.1763 -0.0896 -0.5586
  981SOL    HW1 3124   0.451   3.130   2.774 -0.4912  0.4524 -2.4557
  981SOL    HW2 3125   0.403   2.975   2.758 -1.1162  0.6345 -2.3438
  982SOL     OW 3126   2.647   2.411   2.592 -0.6449 -0.3229 -0.3648
  982SOL    HW1 3127   2.683   2.400   2.685 -0.0518 -1.4665 -0.7154
  982SOL    HW2 3128   2.602   2.327   2.564  0.6175 -0.5959 -1.7039
  983SOL     OW 3129   3.130   2.864   3.306  0.2724 -0.2099  0.0846
  983SOL    HW1 3130   3.050   2.819   3.266 -0.3608  1.5042 -0.6805
  983SOL    HW2 3131   3.203   2.869   3.238 -0.2987  1.4310 -0.4730
  984SOL     OW 3132   3.148   2.162   1.338 -0.0523  0.2041  0.2262
  984SOL    HW1 3133   3.102   2.113   1.264  4.0636 -1.3624 -1.5891
  984SOL    HW2 3134   3.143   2.108   1.422 -3.4925  1.3100  0.8983
  985SOL     OW 3135   3.043   1.442   0.857 -0.0924  0.2998  0.1558
  985SOL    HW1 3136   2.945   1.422   0.865  0.2654 -1.5960  0.4865
  985SOL    HW2 3137   3.068   1.445   0.760  0.0958 -3.0137 -0.0433
  986SOL     OW 3138   1.375   2.435   0.735  0.3339  0.0934  0.1234
  986SOL    HW1 3139   1.359   2.347   0.691 -0.0352  0.5448 -0.6547
  986SOL    HW2 3140   1.354   2.427   0.833 -2.3962  0.0233 -0.4099
  987SOL     OW 3141   2.820   0.097   0.579  0.1335 -0.1900 -0.4221
  987SOL    HW1 3142   2.799   0.091   0.677 -0.8330  0.2243 -0.5888
  987SOL    HW2 3143   2.745   0.054   0.528  0.3261  0.1646 -1.0040
  988SOL     OW 3144   2.688   1.114   0.589  0.2878  0.2814  0.2360
  988SOL    HW1 3145   2.689   1.214   0.587 -0.0739  0.2778 -0.5500
  988SOL    HW2 3146   2.616   1.083   0.652  1.4623  0.4995  1.7369
  989SOL     OW 3147   2.123   2.029   0.111  0.4337  0.3509 -0.2657
  989SOL    HW1 3148   2.158   2.099   0.048  1.5654 -1.5506 -1.8733
  989SOL    HW2 3149   2.033   2.058   0.144  0.4652  2.1476 -1.5721
  990SOL     OW 3150   1.261   3.196   1.565 -0.1434  0.0341 -0.3355
  990SOL    HW1 3151   1.348   3.187   1.614 -0.8380  0.4138  0.9911
  990SOL    HW2 3152   1.193   3.237   1.625 -1.8708 -2.2318 -0.6201
  991SOL     OW 3153   3.476   1.146   2.259 -0.3848 -0.6084 -0.4839
  991SOL    HW1 3154   3.512   1.144   2.353  1.9388 -2.4085 -1.3218
  991SOL    HW2 3155   3.376   1.139   2.263 -0.2425 -3.0574  1.8369
  992SOL     OW 3156   2.721   3.277   1.485  0.0824 -0.0555 -0.4827
  992SOL    HW1 3157   2.697   3.183   1.511  2.3739 -0.9575 -1.3989
  992SOL    HW2 3158   2.644   3.319   1.437  0.2671 -2.8183 -3.4545
  993SOL     OW 3159   2.915   2.377   0.548  0.0984  0.2662  0.0191
  993SOL    HW1 3160   2.915   2.474   0.571 -1.4250  0.2155  0.3255
  993SOL    HW2 3161   2.916   2.323   0.632  2.2321 -0.0527 -0.1323
  994SOL     OW 3162   0.049   0.107   1.296  0.7283  0.2035  0.2725
  994SOL    HW1 3163  -0.049   0.121   1.280  0.5884  0.3861  1.2260
  994SOL    HW2 3164   0.062   0.027   1.354  1.2991 -1.2479 -1.7439
  995SOL     OW 3165   3.212   2.627   2.748 -0.5780  0.0783  0.1198
  995SOL    HW1 3166   3.233   2.718   2.783 -0.6199 -0.0909  0.6011
  995SOL    HW2 3167   3.259   2.559   2.803 -1.3609 -0.2389  0.4210
  996SOL     OW 3168   0.699   2.990   1.557 -0.2153  0.0516 -0.1053
  996SOL    HW1 3169   0.763   2.983   1.480 -1.0195 -0.4184 -0.7389
  996SOL    HW2 3170   0.710   2.909   1.615 -0.3515 -0.1039 -0.2979
  997SOL     OW 3171   0.236   0.310   1.287 -0.7657  0.2083  0.1864
  997SOL    HW1 3172   0.319   0.258   1.265 -0.8446  0.2326 -0.1686
  997SOL    HW2 3173   0.160   0.246   1.298 -1.0189  0.2998 -0.9693
  998SOL     OW 3174   1.893   0.742   1.300  0.0656  0.3176  0.3305
  998SOL    HW1 3175   1.915   0.839   1.311 -1.4404  0.9032 -1.2318
  998SOL    HW2 3176   1.842   0.711   1.379 -2.8764  1.9553 -0.7413
  999SOL     OW 3177   1.704   1.276   3.176 -0.3608 -0.3222  0.5886
  999SOL    HW1 3178   1.644   1.353   3.200 -0.0059  0.0156  0.4137
  999SOL    HW2 3179   1.726   1.224   3.258  0.2321  0.3748  0.8813
 1000SOL     OW 3180   2.270   0.611   1.856  0.7359  0.5562 -0.0861
 1000SOL    HW1 3181   2.325   0.681   1.810 -0.0650  1.8394  0.8476
 1000SOL    HW2 3182   2.179   0.648   1.876  0.9892 -0.0058  2.3537
 1001SOL     OW 3183   3.029   3.123   0.203 -0.6322 -0.1806  0.4097
 1001SOL    HW1 3184   3.123   3.142   0.174 -0.8109 -0.8107 -0.6196
 1001SOL    HW2 3185   3.029   3.107   0.302  0.1610  0.9034  0.6015
 1002SOL     OW 3186   2.804   1.593   0.336 -0.6778  0.4265 -0.1293
 1002SOL    HW1 3187   2.806   1.601   0.436 -0.7582  0.4131 -0.1265
 1002SOL    HW2 3188   2.775   1.500   0.311 -0.9458  0.5212 -0.1670
 1003SOL     OW 3189   2.108   0.361   3.535  0.5623 -0.4094 -0.0372
 1003SOL    HW1 3190   2.027   0.315   3.498 -0.1405  0.5077  0.3252
 1003SOL    HW2 3191   2.107   0.354   3.635 -0.2738  1.4989  0.1289
 1004SOL     OW 3192   0.740   3.589   3.561 -0.5127 -0.6599  0.0301
 1004SOL    HW1 3193   0.661   3.550   3.514 -0.5485 -0.1108 -0.3778
 1004SOL    HW2 3194   0.709   3.661   3.623 -0.3324 -0.3934 -0.1859
 1005SOL     OW 3195   2.904   0.407   0.536 -0.8510 -0.2593 -0.4057
 1005SOL    HW1 3196   2.885   0.317   0.575 -1.1450  0.5873  1.5195
 1005SOL    HW2 3197   2.818   0.459   0.530 -0.2657  1.2268  2.1780
 1006SOL     OW 3198   2.243   1.341   3.204  0.3521  0.2486  0.1783
 1006SOL    HW1 3199   2.181   1.312   3.278 -0.4168 -0.9025 -0.8687
 1006SOL    HW2 3200   2.278   1.260   3.157  0.7114  0.9610 -0.8106
 1007SOL     OW 3201   2.376   2.833   0.170 -0.7018  0.3429 -0.1717
 1007SOL    HW1 3202   2.369   2.751   0.113  2.8344  0.5325 -1.1046
 1007SOL    HW2 3203   2.365   2.914   0.112 -2.1760  0.5747  0.3936
 1008SOL     OW 3204   0.131   2.435   0.030 -0.4422  0.4370 -0.1969
 1008SOL    HW1 3205   0.141   2.459  -0.067  1.1404 -0.3987 -0.2788
 1008SOL    HW2 3206   0.115   2.519   0.082 -1.0213  0.9364 -1.1460
 1009SOL     OW 3207   0.660   1.790   2.864 -0.3813 -0.2873  0.0842
 1009SOL    HW1 3208   0.606   1.820   2.942 -2.2384 -1.6684 -0.5969
 1009SOL    HW2 3209   0.653   1.857   2.790 -0.9469 -0.3355  0.0950
 1010SOL     OW 3210   2.840   0.646   1.306 -0.0357 -0.6287  0.4713
 1010SOL    HW1 3211   2.742   0.643   1.327 -0.0279 -1.8300  0.4191
 1010SOL    HW2 3212   2.852   0.643   1.207  0.0315  1.1628  0.3937
 1011SOL     OW 3213   1.266   2.500   3.052 -0.1994 -0.2892  0.4034
 1011SOL    HW1 3214   1.343   2.437   3.041 -0.8413 -0.7331 -2.3712
 1011SOL    HW2 3215   1.268   2.567   2.978 -0.7803  1.6377  2.0549
 1012SOL     OW 3216   3.257   3.554   3.175 -0.3805  0.2158 -0.3711
 1012SOL    HW1 3217   3.308   3.566   3.261  0.6426  1.2803 -1.0949
 1012SOL    HW2 3218   3.320   3.565   3.098 -1.5567  0.7062 -1.2858
 1013SOL     OW 3219   3.408   3.206   2.533 -0.3345 -0.1038 -0.5511
 1013SOL    HW1 3220   3.317   3.164   2.538 -0.1939 -0.2633  1.4636
 1013SOL    HW2 3221   3.410   3.270   2.456 -2.8016  1.3671  0.4988
 1014SOL     OW 3222   1.562   1.022   0.513  0.1319 -0.2692  0.2782
 1014SOL    HW1 3223   1.607   0.953   0.570  0.8508 -0.2122 -0.2015
 1014SOL    HW2 3224   1.612   1.108   0.522  0.1015 -0.1985 -0.2457
 1015SOL     OW 3225   0.587   2.887   3.438  0.1384 -0.0803  0.2189
 1015SOL    HW1 3226   0.521   2.962   3.433  1.1633  0.8170 -4.3881
 1015SOL    HW2 3227   0.653   2.907   3.510 -2.4916  0.7303  2.5829
 1016SOL     OW 3228   0.276   0.697   0.478 -0.1300  0.0712 -0.5115
 1016SOL    HW1 3229   0.242   0.603   0.484 -0.3117  0.1779  0.2897
 1016SOL    HW2 3230   0.249   0.747   0.561  1.3572  0.3750 -0.1915
 1017SOL     OW 3231   3.538   1.175   1.201  0.2060  0.0071 -0.5444
 1017SOL    HW1 3232   3.463   1.159   1.266 -0.2695 -1.1926 -1.3543
 1017SOL    HW2 3233   3.612   1.111   1.221  0.2019 -0.1302 -0.9811
 1018SOL     OW 3234   2.885   1.032   2.293  0.2135 -0.1242  0.3006
 1018SOL    HW1 3235   2.918   1.073   2.378 -1.7364 -1.2836  1.7120
 1018SOL    HW2 3236   2.786   1.046   2.286  0.1832 -0.8942 -1.2990
 1019SOL     OW 3237   2.997   2.136   1.635 -0.0598  0.5471  0.1618
 1019SOL    HW1 3238   3.074   2.073   1.620 -0.4981 -0.1400  0.7600
 1019SOL    HW2 3239   2.912   2.091   1.607 -0.3923  0.8279  0.7214
 1020SOL     OW 3240   2.789   0.354   1.829 -0.2791 -0.1678 -0.3664
 1020SOL    HW1 3241   2.712   0.291   1.827 -0.8386  0.4619  0.7433
 1020SOL    HW2 3242   2.755   0.448   1.830  0.4932  0.1189  0.3114
 1021SOL     OW 3243   0.952   0.464   2.462 -0.1518  0.0464 -0.0941
 1021SOL    HW1 3244   1.035   0.518   2.474 -0.0143 -0.3234  0.7218
 1021SOL    HW2 3245   0.915   0.440   2.552 -1.2207  0.3208 -0.4484
 1022SOL     OW 3246   2.491   0.860   1.776 -0.3756  0.2403  0.2558
 1022SOL    HW1 3247   2.543   0.880   1.693 -0.0526 -1.1416  0.0893
 1022SOL    HW2 3248   2.394   0.873   1.757 -0.3089 -0.1128 -0.3666
 1023SOL     OW 3249   0.384   2.253   3.243 -0.4978  0.1229 -0.3514
 1023SOL    HW1 3250   0.376   2.289   3.336  0.0778  1.5973 -0.8398
 1023SOL    HW2 3251   0.463   2.192   3.238 -1.3629 -1.1199  0.4411
 1024SOL     OW 3252   2.255   1.695   1.544  0.0724  0.4425  0.3509
 1024SOL    HW1 3253   2.328   1.729   1.484 -0.6810 -0.3061 -1.0241
 1024SOL    HW2 3254   2.280   1.714   1.639  1.7306  0.8152 -0.1260
 1025SOL     OW 3255   0.602   3.247   0.765  0.0220 -0.1125 -0.4231
 1025SOL    HW1 3256   0.580   3.344   0.778  0.1661 -0.1042 -0.2376
 1025SOL    HW2 3257   0.544   3.210   0.692 -2.9364 -0.8797  2.1102
 1026SOL     OW 3258   1.940   2.492   2.915 -0.3836 -0.1476 -0.4606
 1026SOL    HW1 3259   1.962   2.531   3.004 -0.2995  1.7712 -1.2690
 1026SOL    HW2 3260   2.025   2.467   2.868 -0.3110  0.5507 -0.7138
 1027SOL     OW 3261   3.031   0.958   1.031  0.4383 -0.4939  0.3167
 1027SOL    HW1 3262   2.953   1.020   1.034  0.0085 -1.0568  0.7106
 1027SOL    HW2 3263   3.083   0.966   1.116  1.2199  0.3853 -0.2108
 1028SOL     OW 3264   2.715   0.378   2.169  0.0090  0.4577  0.1439
 1028SOL    HW1 3265   2.691   0.305   2.105 -1.3864  0.8015  0.2382
 1028SOL    HW2 3266   2.711   0.466   2.122 -1.5121  0.7642  0.7713
 1029SOL     OW 3267   0.807   1.600   3.394  0.2036 -0.6734  0.8861
 1029SOL    HW1 3268   0.716   1.598   3.354  0.9553 -1.6261 -0.8872
 1029SOL    HW2 3269   0.852   1.511   3.380  2.1953  0.4331 -0.2722
 1030SOL     OW 3270   1.419   1.499   3.172  0.7079  0.2508 -0.6309
 1030SOL    HW1 3271   1.434   1.586   3.218  0.0101  0.1197 -0.1391
 1030SOL    HW2 3272   1.406   1.427   3.240  0.3588 -0.0693 -1.0248
 1031SOL     OW 3273   1.270   2.699   3.250 -0.6833  0.1586 -0.1612
 1031SOL    HW1 3274   1.249   2.633   3.178 -2.3030  0.6563 -0.1837
 1031SOL    HW2 3275   1.192   2.760   3.263 -0.7344 -0.3313  2.4761
 1032SOL     OW 3276   1.907   3.543   0.590 -0.0155  0.1047 -0.0694
 1032SOL    HW1 3277   1.985   3.592   0.629  1.9992  0.3184 -3.8401
 1032SOL    HW2 3278   1.916   3.445   0.607 -1.0421  0.4130  2.6820
 1033SOL     OW 3279   2.265   2.426   0.705 -0.0259 -0.3727  0.1562
 1033SOL    HW1 3280   2.348   2.466   0.744 -0.8083  1.2883  0.2079
 1033SOL    HW2 3281   2.286   2.383   0.618  1.2134 -1.5947  1.0304
 1034SOL     OW 3282   1.345   0.663   3.000  0.2536  0.0425 -0.0415
 1034SOL    HW1 3283   1.397   0.748   2.990  0.6771 -0.2408 -0.2709
 1034SOL    HW2 3284   1.258   0.683   3.045  0.7083  0.4664  0.6713
 1035SOL     OW 3285   2.488   0.306   3.170 -0.2429  0.9786 -0.5852
 1035SOL    HW1 3286   2.424   0.268   3.104  0.1880  0.1505 -0.5533
 1035SOL    HW2 3287   2.552   0.367   3.123 -0.7610  1.4454 -0.6927
 1036SOL     OW 3288   2.072   0.405   2.745  0.5083  0.1854 -0.0315
 1036SOL    HW1 3289   2.086   0.479   2.680 -0.4483  1.8849  1.6053
 1036SOL    HW2 3290   2.154   0.393   2.800  0.6755 -0.0020 -0.3203
 1037SOL     OW 3291   3.277   2.921   2.255  0.2853  0.4459 -0.2056
 1037SOL    HW1 3292   3.200   2.888   2.201  0.7380 -0.3651 -0.3697
 1037SOL    HW2 3293   3.341   2.846   2.271  0.8585  1.0163  0.2496
 1038SOL     OW 3294   2.502   0.904   2.052 -0.2333 -0.0120  0.2610
 1038SOL    HW1 3295   2.419   0.860   2.085 -1.9656  3.4060  0.9509
 1038SOL    HW2 3296   2.512   0.886   1.954 -1.7035 -0.6256  0.2004
 1039SOL     OW 3297   2.268   2.127   2.732 -0.3701 -0.7797  0.4768
 1039SOL    HW1 3298   2.320   2.089   2.808  0.3413 -1.6959 -0.4276
 1039SOL    HW2 3299   2.211   2.054   2.692 -0.6209 -0.3543  0.0499
 1040SOL     OW 3300   3.100   3.367   2.756 -0.2139 -0.3271 -0.3802
 1040SOL    HW1 3301   3.120   3.457   2.795 -1.7314  0.7870 -2.0363
 1040SOL    HW2 3302   3.073   3.305   2.830  0.3876  0.7047  0.7406
 1041SOL     OW 3303   0.330   1.000   0.096  0.1453 -0.3394  0.3459
 1041SOL    HW1 3304   0.289   0.933   0.158  0.7695 -2.2709 -1.2366
 1041SOL    HW2 3305   0.424   1.019   0.125 -0.4992  1.0687  1.6641
 1042SOL     OW 3306   0.461   0.532   1.887  0.2718  0.7998 -0.1194
 1042SOL    HW1 3307   0.362   0.546   1.883  0.4452  2.6662  0.7723
 1042SOL    HW2 3308   0.500   0.543   1.795 -0.5225 -1.9999 -0.8589
 1043SOL     OW 3309   0.092   2.668   2.059 -0.2573 -0.0947 -0.0373
 1043SOL    HW1 3310   0.082   2.570   2.043 -2.0143 -0.1395  0.9987
 1043SOL    HW2 3311   0.161   2.683   2.130  1.1191 -0.4517 -1.2701
 1044SOL     OW 3312   1.273   2.401   0.977  0.1834 -0.0368 -0.1673
 1044SOL    HW1 3313   1.307   2.394   1.071 -1.1228 -0.2723  0.3183
 1044SOL    HW2 3314   1.177   2.428   0.980 -0.2322 -1.2756 -1.3818
 1045SOL     OW 3315   2.013   3.365   0.821  0.0043  0.5026 -0.2188
 1045SOL    HW1 3316   2.065   3.283   0.845  2.9454  1.9758 -1.1430
 1045SOL    HW2 3317   1.956   3.346   0.741  0.3857 -0.7068 -0.2200
 1046SOL     OW 3318   0.582   2.609   3.417  0.0128  0.5814  0.0425
 1046SOL    HW1 3319   0.485   2.621   3.396 -0.0747 -0.5339 -0.2571
 1046SOL    HW2 3320   0.634   2.685   3.377 -0.6037  0.5834 -0.7846
 1047SOL     OW 3321   1.782   0.286   1.254 -0.0521  0.5390  0.1803
 1047SOL    HW1 3322   1.862   0.226   1.258 -0.3911 -0.0373 -1.2316
 1047SOL    HW2 3323   1.722   0.266   1.332  0.8128  0.4680  0.8406
 1048SOL     OW 3324   3.283   0.621   3.200  0.0587 -0.2102  0.1658
 1048SOL    HW1 3325   3.295   0.720   3.204  0.4422 -0.1514 -1.6298
 1048SOL    HW2 3326   3.299   0.590   3.106 -1.3162 -1.8140  0.4183
 1049SOL     OW 3327   1.447   0.408   0.356  0.4912 -0.3624  0.5565
 1049SOL    HW1 3328   1.490   0.420   0.446  0.7711 -0.3901  0.4259
 1049SOL    HW2 3329   1.441   0.497   0.310 -0.9755 -0.0934  1.1969
 1050SOL     OW 3330   1.446   1.968   3.088 -0.8092 -0.0686 -0.0001
 1050SOL    HW1 3331   1.384   1.987   3.012 -0.7915 -0.3415 -0.0855
 1050SOL    HW2 3332   1.497   1.884   3.069 -0.5598  0.0443  0.1614
 1051SOL     OW 3333   2.491   0.260   1.197  0.1464 -0.1586 -0.1445
 1051SOL    HW1 3334   2.500   0.347   1.150  0.5673  0.4222  0.9747
 1051SOL    HW2 3335   2.557   0.255   1.272 -0.7189 -0.8978  0.6050
 1052SOL     OW 3336   2.764   2.002   1.542 -0.1772 -0.0401 -0.2641
 1052SOL    HW1 3337   2.726   1.970   1.455 -2.5595  1.0552  0.2894
 1052SOL    HW2 3338   2.709   1.967   1.617  0.5190  0.8192  0.6693
 1053SOL     OW 3339   2.049   3.083   3.125 -0.0661 -0.4164  0.1156
 1053SOL    HW1 3340   2.129   3.049   3.076  0.4784 -1.8333  1.8942
 1053SOL    HW2 3341   1.994   3.006   3.156 -1.9729  0.5269 -0.7397
 1054SOL     OW 3342   2.501   3.193   0.529  0.1493 -0.4271 -0.5421
 1054SOL    HW1 3343   2.449   3.116   0.492 -1.4062  0.2311  0.1531
 1054SOL    HW2 3344   2.556   3.234   0.457 -0.1490 -1.2786 -1.2639
 1055SOL     OW 3345   2.649   1.386   0.287 -0.2598 -0.2083  0.8661
 1055SOL    HW1 3346   2.623   1.339   0.203 -0.4145 -0.4598  1.0543
 1055SOL    HW2 3347   2.693   1.321   0.349 -1.5904 -0.4142  1.6430
 1056SOL     OW 3348   2.097   1.445   0.334  0.1848 -0.0763  0.3575
 1056SOL    HW1 3349   2.122   1.542   0.332  1.0152 -0.2945 -0.5897
 1056SOL    HW2 3350   1.998   1.437   0.321 -0.1211  0.6976  1.9264
 1057SOL     OW 3351   2.339   3.210   2.339 -0.0166  1.0056 -0.1781
 1057SOL    HW1 3352   2.274   3.219   2.415  1.0850 -1.2524  1.1321
 1057SOL    HW2 3353   2.361   3.301   2.304 -1.8589  1.9981  1.0680
 1058SOL     OW 3354   3.519   1.989   0.982  0.1279 -0.4723 -0.1154
 1058SOL    HW1 3355   3.474   1.977   0.894  2.6012 -0.1286 -1.5214
 1058SOL    HW2 3356   3.482   1.923   1.047 -1.6029 -0.8890 -1.4448
 1059SOL     OW 3357   1.307   0.004   1.792  0.2829 -0.4665 -0.0492
 1059SOL    HW1 3358   1.336  -0.011   1.697  0.7035  2.7254 -0.5523
 1059SOL    HW2 3359   1.240   0.079   1.794  0.1375 -0.5922  2.1623
 1060SOL     OW 3360   2.395   0.821   3.500  0.0678  0.0844 -0.2104
 1060SOL    HW1 3361   2.381   0.817   3.401  3.3838 -0.7210 -0.7591
 1060SOL    HW2 3362   2.444   0.739   3.530 -2.4954 -0.6336  2.5022
 1061SOL     OW 3363   3.571   2.779   1.288 -0.4193  0.4548 -0.1447
 1061SOL    HW1 3364   3.543   2.714   1.217 -0.9148  1.2770 -0.7185
 1061SOL    HW2 3365   3.580   2.731   1.375 -0.0580 -0.5212 -0.7107
 1062SOL     OW 3366   0.200   0.099   3.474 -0.4307 -0.3121  0.5578
 1062SOL    HW1 3367   0.247   0.184   3.447  0.3039 -0.5628  1.0174
 1062SOL    HW2 3368   0.235   0.069   3.562 -0.5891 -1.1760  0.3343
 1063SOL     OW 3369   2.802   0.258   0.112 -0.4081  0.5426 -0.0881
 1063SOL    HW1 3370   2.739   0.332   0.089  0.3332  1.0271 -0.6254
 1063SOL    HW2 3371   2.810   0.197   0.034 -0.4604  0.2997  0.0959
 1064SOL     OW 3372   0.214   1.423   3.193 -0.4757 -0.3443 -0.2657
 1064SOL    HW1 3373   0.117   1.427   3.166 -0.4293 -1.4841 -0.6593
 1064SOL    HW2 3374   0.267   1.385   3.117  0.3199  0.4643 -0.1261
 1065SOL     OW 3375   0.719   0.445   0.276 -0.0787 -0.4112 -0.1644
 1065SOL    HW1 3376   0.656   0.512   0.238 -1.3679 -1.9545 -0.9055
 1065SOL    HW2 3377   0.695   0.428   0.372  0.0475 -0.0487 -0.0685
 1066SOL     OW 3378   0.876   0.199   1.404 -0.2395 -0.0083  0.4491
 1066SOL    HW1 3379   0.797   0.165   1.455 -0.5739 -1.3101 -0.8816
 1066SOL    HW2 3380   0.846   0.269   1.339 -0.0402  0.5687  0.9604
 1067SOL     OW 3381   1.480   1.690   0.426 -0.5041 -0.2060  0.2711
 1067SOL    HW1 3382   1.536   1.614   0.459 -0.5091 -0.5791 -0.5595
 1067SOL    HW2 3383   1.384   1.672   0.448 -0.3955  0.0530  0.9807
 1068SOL     OW 3384   3.446   2.089   3.346  0.2443  0.9952 -0.2815
 1068SOL    HW1 3385   3.376   2.020   3.324  0.8939 -0.2868  1.3921
 1068SOL    HW2 3386   3.528   2.071   3.293  0.8441 -0.3648  1.0183
 1069SOL     OW 3387   0.321   2.297   3.521  0.4158  0.1600 -0.1868
 1069SOL    HW1 3388   0.267   2.349   3.587  0.2982 -1.5796  1.1519
 1069SOL    HW2 3389   0.278   2.208   3.505  2.5555 -1.0742  0.5384
 1070SOL     OW 3390   1.560   0.349   1.074 -0.3016  0.8491  0.0211
 1070SOL    HW1 3391   1.482   0.319   1.130  0.5177 -3.5758 -0.8121
 1070SOL    HW2 3392   1.645   0.324   1.121  0.4947  0.9338 -1.3387
 1071SOL     OW 3393   1.328   3.191   2.895  0.3809  0.2865  0.4639
 1071SOL    HW1 3394   1.235   3.167   2.865  0.6094  0.9059 -0.7901
 1071SOL    HW2 3395   1.328   3.285   2.927  0.9378  0.9746 -1.3959
 1072SOL     OW 3396   2.260   1.036   1.519  0.0485 -0.4508 -0.2096
 1072SOL    HW1 3397   2.253   0.999   1.612  0.7971  1.1256  0.5048
 1072SOL    HW2 3398   2.248   0.961   1.453  0.0654 -1.6981  1.1498
 1073SOL     OW 3399   0.536   1.656   1.055 -0.0026  0.2362  0.5837
 1073SOL    HW1 3400   0.614   1.670   1.115  0.7744  0.0454 -0.3464
 1073SOL    HW2 3401   0.549   1.571   1.003 -0.3518  0.6901 -0.2795
 1074SOL     OW 3402   0.503   2.460   1.468 -0.3740 -0.0590 -0.2427
 1074SOL    HW1 3403   0.591   2.497   1.438 -0.5995 -0.3927 -1.3435
 1074SOL    HW2 3404   0.500   2.362   1.449 -0.3895 -0.3640  1.2259
 1075SOL     OW 3405   3.284   0.970   0.041 -0.1537 -0.2820 -0.5327
 1075SOL    HW1 3406   3.298   1.011   0.131 -0.6923 -1.2057 -0.0129
 1075SOL    HW2 3407   3.186   0.956   0.027 -0.0737 -0.1240 -1.2756
 1076SOL     OW 3408   2.874   3.093   2.549 -1.2022 -0.4195  0.6642
 1076SOL    HW1 3409   2.928   3.177   2.554  0.2126 -1.1684 -0.9785
 1076SOL    HW2 3410   2.809   3.101   2.473 -0.9589 -0.8543  0.4092
 1077SOL     OW 3411   1.306   1.117   1.973 -0.0495  0.6744 -0.3993
 1077SOL    HW1 3412   1.296   1.030   2.021  0.9361  0.6207 -0.2554
 1077SOL    HW2 3413   1.218   1.164   1.969 -0.5704 -0.2998 -0.4286
 1078SOL     OW 3414   2.103   1.278   2.926 -0.1964  0.0418 -0.1530
 1078SOL    HW1 3415   2.101   1.288   2.827  1.4747  1.5407 -0.0714
 1078SOL    HW2 3416   2.068   1.361   2.969  0.2962 -0.0798  0.5080
 1079SOL     OW 3417   0.912   2.942   1.944 -0.1749  0.2678  0.1055
 1079SOL    HW1 3418   0.842   2.968   2.010  2.6191  0.4892  3.2859
 1079SOL    HW2 3419   0.973   2.874   1.986  1.3584 -0.1697 -2.5838
 1080SOL     OW 3420   0.933   2.818   2.726 -0.0912 -0.0523  0.5229
 1080SOL    HW1 3421   1.018   2.839   2.775  0.3336 -0.3636 -0.0739
 1080SOL    HW2 3422   0.912   2.721   2.736 -1.3028  0.3290  2.0969
 1081SOL     OW 3423   1.854   2.813   0.452 -0.2714  0.2931  0.1887
 1081SOL    HW1 3424   1.788   2.745   0.420 -0.1887  0.1116  0.3996
 1081SOL    HW2 3425   1.892   2.861   0.373 -1.2852  0.9883  0.1101
 1082SOL     OW 3426   0.842   1.808   1.944  0.0656 -0.2461 -0.1139
 1082SOL    HW1 3427   0.772   1.809   1.872  0.6641  0.0120 -0.7080
 1082SOL    HW2 3428   0.916   1.747   1.917 -0.5448 -1.5962  1.1340
 1083SOL     OW 3429   2.163   2.387   2.767 -0.1869 -0.5043  0.0032
 1083SOL    HW1 3430   2.187   2.292   2.786  0.6690 -0.1042  0.9891
 1083SOL    HW2 3431   2.242   2.446   2.786 -0.5553  0.3583 -1.0492
 1084SOL     OW 3432   1.258   1.021   1.236 -0.0334  0.4807 -0.0625
 1084SOL    HW1 3433   1.278   0.923   1.244  2.1759  0.6177 -2.6572
 1084SOL    HW2 3434   1.175   1.033   1.182 -1.0209  0.0941  1.2960
 1085SOL     OW 3435   3.575   1.643   0.629 -0.0280 -0.2583  0.0235
 1085SOL    HW1 3436   3.642   1.625   0.557 -0.4655  0.4205 -0.5643
 1085SOL    HW2 3437   3.623   1.672   0.712  0.5321 -1.8174  0.2726
 1086SOL     OW 3438   2.133   2.638   0.204  0.8982 -0.3728 -0.2385
 1086SOL    HW1 3439   2.207   2.632   0.137  1.1135 -1.7065  0.0767
 1086SOL    HW2 3440   2.094   2.730   0.203  1.2320 -0.2309 -1.8136
 1087SOL     OW 3441   3.034   3.325   2.517 -0.0115  0.1581  0.3839
 1087SOL    HW1 3442   3.096   3.255   2.483  2.1815  1.4532  1.5012
 1087SOL    HW2 3443   3.072   3.365   2.601 -2.0286  1.4970  0.7323
 1088SOL     OW 3444   3.370   2.564   3.241 -0.3233 -0.3966  0.7805
 1088SOL    HW1 3445   3.325   2.546   3.328 -0.6386 -0.3198  0.6344
 1088SOL    HW2 3446   3.337   2.652   3.205 -0.2674 -0.4756  0.5376
 1089SOL     OW 3447   1.405   0.434   0.767  0.0737 -0.0617  0.7883
 1089SOL    HW1 3448   1.440   0.365   0.830 -1.5161  0.4392  2.2987
 1089SOL    HW2 3449   1.320   0.401   0.726 -0.4731  0.7909  1.2024
 1090SOL     OW 3450   1.603   1.481   3.451  0.2968 -0.2004 -0.3928
 1090SOL    HW1 3451   1.562   1.403   3.404  0.0099 -0.0382 -0.4114
 1090SOL    HW2 3452   1.541   1.559   3.445  0.9731  0.2909 -1.1596
 1091SOL     OW 3453   2.925   0.284   1.217  0.1861  0.1395 -0.0504
 1091SOL    HW1 3454   2.936   0.185   1.232 -0.1480  0.2193  0.7450
 1091SOL    HW2 3455   2.970   0.333   1.292 -1.8243  0.5441  0.9607
 1092SOL     OW 3456   0.851   0.327   2.695  0.7102 -0.5756  0.0526
 1092SOL    HW1 3457   0.787   0.393   2.734  0.5832 -0.4414 -0.3774
 1092SOL    HW2 3458   0.826   0.235   2.727  0.2602 -0.5315 -0.1569
 1093SOL     OW 3459   2.265   3.434   0.430  0.2977 -0.0158 -0.9583
 1093SOL    HW1 3460   2.296   3.346   0.395  3.4552  0.5765 -0.0497
 1093SOL    HW2 3461   2.229   3.489   0.355 -0.9781 -1.7500 -1.6713
 1094SOL     OW 3462   3.223   1.561   1.256 -0.6685 -0.2305 -0.1534
 1094SOL    HW1 3463   3.171   1.480   1.230 -1.4648 -0.1862  1.2219
 1094SOL    HW2 3464   3.321   1.541   1.249 -0.8212 -0.5305 -2.0913
 1095SOL     OW 3465   1.438   2.552   2.639 -0.0052  0.0149 -0.1300
 1095SOL    HW1 3466   1.411   2.534   2.545 -0.3944  0.1316 -0.0402
 1095SOL    HW2 3467   1.446   2.465   2.688  1.2217 -0.1258 -0.5437
 1096SOL     OW 3468   1.225   2.172   2.073 -0.4803 -0.0407  0.2626
 1096SOL    HW1 3469   1.164   2.238   2.029 -0.3176  0.1718  0.3488
 1096SOL    HW2 3470   1.177   2.085   2.084 -0.6675  0.0357  0.0638
 1097SOL     OW 3471   0.847   3.579   0.618 -0.2133  0.2379 -0.5233
 1097SOL    HW1 3472   0.855   3.656   0.683 -1.1974  0.1363 -0.2685
 1097SOL    HW2 3473   0.856   3.493   0.668 -0.3620  0.1664 -0.6199
 1098SOL     OW 3474   3.471   0.310   0.351 -0.8416  0.4658  0.0266
 1098SOL    HW1 3475   3.492   0.292   0.448 -1.5822  0.8719  0.2748
 1098SOL    HW2 3476   3.378   0.278   0.332 -1.1481  1.4904 -0.2376
 1099SOL     OW 3477   2.407   1.857   1.387 -0.3226 -0.1027  0.2347
 1099SOL    HW1 3478   2.397   1.954   1.411  0.3646 -0.4563  2.0777
 1099SOL    HW2 3479   2.503   1.839   1.365 -0.7961  0.0363 -2.1847
 1100SOL     OW 3480   0.107   1.724   0.890 -0.4720  0.0030 -0.0427
 1100SOL    HW1 3481   0.167   1.671   0.950 -0.0700  0.5952  0.0810
 1100SOL    HW2 3482   0.141   1.817   0.883 -1.2011  0.2614 -0.2314
 1101SOL     OW 3483   0.900   1.299   0.410 -0.4642 -0.2760 -0.1279
 1101SOL    HW1 3484   0.932   1.205   0.400 -0.3097 -0.3114  0.6630
 1101SOL    HW2 3485   0.921   1.332   0.502 -1.5580  0.1480 -0.0174
 1102SOL     OW 3486   1.344   0.761   1.273  0.4746 -0.4568  0.5292
 1102SOL    HW1 3487   1.443   0.748   1.281  1.3615  4.7016  1.4616
 1102SOL    HW2 3488   1.317   0.749   1.177  2.3320 -0.3690 -0.0407
 1103SOL     OW 3489   0.886   0.536   3.538 -0.4050 -0.0727  0.5154
 1103SOL    HW1 3490   0.788   0.550   3.544 -0.2845  1.1701 -0.1062
 1103SOL    HW2 3491   0.931   0.623   3.519  0.6864 -0.8583 -0.6727
 1104SOL     OW 3492   0.921   1.721   2.818  0.6628  0.1568  0.4328
 1104SOL    HW1 3493   0.841   1.771   2.850  0.5314  0.5863 -0.5301
 1104SOL    HW2 3494   0.996   1.734   2.883  0.4046  0.9912  0.5715
 1105SOL     OW 3495   0.321   1.656   0.035 -0.3536  0.2340  0.0649
 1105SOL    HW1 3496   0.410   1.617   0.057 -0.8487 -0.6066  0.6299
 1105SOL    HW2 3497   0.310   1.661  -0.064  1.9165  4.0532 -0.1974
 1106SOL     OW 3498   2.672   1.883   1.796  0.7486 -0.9492  0.0105
 1106SOL    HW1 3499   2.665   1.785   1.777 -1.3916 -0.9983  0.7588
 1106SOL    HW2 3500   2.670   1.897   1.895 -2.6540 -0.0446 -0.0730
 1107SOL     OW 3501   1.125   0.286   2.728  0.0228 -0.3774  0.0741
 1107SOL    HW1 3502   1.028   0.310   2.718 -0.0019 -0.6088 -0.2519
 1107SOL    HW2 3503   1.150   0.221   2.657  0.6851  0.4443 -0.4544
 1108SOL     OW 3504   0.279   3.475   2.253 -0.6589 -0.0579 -0.2410
 1108SOL    HW1 3505   0.272   3.524   2.166  0.8301  0.5779 -0.0185
 1108SOL    HW2 3506   0.192   3.428   2.270 -1.3184  0.5998 -1.5861
 1109SOL     OW 3507   3.549   2.760   0.687 -0.0458 -0.1555  0.5214
 1109SOL    HW1 3508   3.567   2.756   0.785 -0.3845 -3.0154  0.5487
 1109SOL    HW2 3509   3.633   2.738   0.637  0.3687  2.1916  0.0744
 1110SOL     OW 3510   2.469   0.212   2.869 -0.1180  0.2717  0.1538
 1110SOL    HW1 3511   2.399   0.141   2.874  0.7274 -0.7086 -1.1895
 1110SOL    HW2 3512   2.425   0.302   2.873 -1.4487 -0.3208 -0.6119
 1111SOL     OW 3513   3.549   1.375   1.432 -0.1079 -0.2848  0.4753
 1111SOL    HW1 3514   3.488   1.317   1.377 -1.2054  0.3950  0.9468
 1111SOL    HW2 3515   3.610   1.317   1.485 -2.1575 -1.0972  2.0652
 1112SOL     OW 3516   2.194   0.202   2.526  0.6287  0.0558  0.5163
 1112SOL    HW1 3517   2.133   0.281   2.535  1.2983  0.6630 -0.1947
 1112SOL    HW2 3518   2.154   0.136   2.461  1.3609  1.0939 -1.0380
 1113SOL     OW 3519   1.932   1.450   3.373 -0.6322  0.4561 -0.2469
 1113SOL    HW1 3520   2.021   1.417   3.406  0.0136  2.5646  0.2925
 1113SOL    HW2 3521   1.860   1.399   3.420  0.2831 -0.5544  0.1218
 1114SOL     OW 3522   0.507   3.364   0.156 -0.2947  0.6211  0.0867
 1114SOL    HW1 3523   0.601   3.346   0.125 -1.5700 -0.5236 -3.7076
 1114SOL    HW2 3524   0.451   3.283   0.138 -2.7960  2.5480 -1.4456
 1115SOL     OW 3525   3.099   1.531   3.260 -0.6391  0.1968 -0.1153
 1115SOL    HW1 3526   3.095   1.562   3.165  1.0747 -2.2502 -1.0839
 1115SOL    HW2 3527   3.025   1.466   3.276  0.7912 -1.6800 -0.7647
 1116SOL     OW 3528   3.473   1.267   3.267  0.0522  0.0253  0.0404
 1116SOL    HW1 3529   3.564   1.243   3.301  0.6614  0.1322 -1.4237
 1116SOL    HW2 3530   3.404   1.223   3.324  1.0263 -0.4189  0.9112
 1117SOL     OW 3531   3.016   0.473   2.494 -0.9551 -0.0461 -0.1300
 1117SOL    HW1 3532   3.059   0.418   2.566  0.4301  1.2055  0.0411
 1117SOL    HW2 3533   3.056   0.449   2.406 -1.6784 -0.6020 -0.3195
 1118SOL     OW 3534   3.319   1.544   0.294 -0.3859  0.0405 -0.6180
 1118SOL    HW1 3535   3.331   1.643   0.305 -0.3790  0.0200 -0.4333
 1118SOL    HW2 3536   3.222   1.522   0.295 -0.4018  0.0811 -0.9890
 1119SOL     OW 3537   2.168   3.450   2.380 -0.7129  0.6965 -0.4723
 1119SOL    HW1 3538   2.127   3.383   2.443 -0.6244  0.4930 -0.6314
 1119SOL    HW2 3539   2.195   3.404   2.296  0.6230  0.6618 -0.0369
 1120SOL     OW 3540   1.449   1.280   3.347 -0.0466 -0.3417  0.0919
 1120SOL    HW1 3541   1.357   1.243   3.358  0.4013 -1.0414  1.9372
 1120SOL    HW2 3542   1.503   1.220   3.289 -0.7744  0.1689 -1.1541
 1121SOL     OW 3543   3.243   2.203   1.862  0.2940  0.0876 -0.3214
 1121SOL    HW1 3544   3.264   2.300   1.874  1.6837  0.1747 -2.9125
 1121SOL    HW2 3545   3.217   2.186   1.767 -2.7169 -1.6673  0.6684
 1122SOL     OW 3546   0.602   0.274   3.055 -0.1210  0.1805  0.1885
 1122SOL    HW1 3547   0.579   0.355   3.110 -2.3250 -0.7951  0.8199
 1122SOL    HW2 3548   0.610   0.195   3.116 -1.1442 -0.6463 -0.7166
 1123SOL     OW 3549   3.509   2.902   1.612  0.4552 -0.4905 -0.2404
 1123SOL    HW1 3550   3.543   2.880   1.703 -2.4671 -1.8468  0.6481
 1123SOL    HW2 3551   3.505   2.818   1.558 -1.7326 -0.5081 -0.1395
 1124SOL     OW 3552   0.962   1.161   1.710 -1.0631 -0.0088 -0.7203
 1124SOL    HW1 3553   0.952   1.229   1.637 -0.8621  0.1996 -0.5545
 1124SOL    HW2 3554   1.042   1.104   1.692 -0.7400  0.3441 -0.4237
 1125SOL     OW 3555   3.262   2.592   1.821  0.8254 -0.5411  0.4893
 1125SOL    HW1 3556   3.177   2.644   1.815  1.2291 -0.0410 -1.4941
 1125SOL    HW2 3557   3.284   2.554   1.731  1.7056 -2.3030  1.3973
 1126SOL     OW 3558   0.697   1.461   1.913  0.0368  0.2659 -0.0913
 1126SOL    HW1 3559   0.723   1.496   2.003  1.0521  0.1184 -0.3197
 1126SOL    HW2 3560   0.681   1.362   1.919  0.6827  0.1500 -0.1845
 1127SOL     OW 3561   0.283   3.312   3.486 -0.1646  0.1357  0.3645
 1127SOL    HW1 3562   0.263   3.387   3.423  1.8485  1.0878  0.7522
 1127SOL    HW2 3563   0.248   3.335   3.577  0.9374  0.9072  0.6129
 1128SOL     OW 3564   1.842   1.457   1.280  0.1085  0.4419  0.2464
 1128SOL    HW1 3565   1.754   1.470   1.325  1.3292  0.4014  2.8120
 1128SOL    HW2 3566   1.912   1.511   1.328  2.1682 -2.3273  0.5879
 1129SOL     OW 3567   0.679   2.014   2.716 -0.2254 -0.0817  0.3028
 1129SOL    HW1 3568   0.697   2.015   2.618 -1.6193 -1.0646  0.0074
 1129SOL    HW2 3569   0.628   2.096   2.741 -0.2366 -0.0380  0.1329
 1130SOL     OW 3570   2.024   2.402   3.535 -0.1501  0.3382  0.1665
 1130SOL    HW1 3571   1.947   2.366   3.482 -1.3976  1.5911  1.0532
 1130SOL    HW2 3572   2.103   2.343   3.521 -1.0654 -0.6315 -1.2926
 1131SOL     OW 3573   2.136   0.640   2.595 -0.8848  0.0020  0.2285
 1131SOL    HW1 3574   2.204   0.676   2.531 -1.0252 -1.5294 -0.8330
 1131SOL    HW2 3575   2.129   0.702   2.673  0.6586  0.9496 -0.3319
 1132SOL     OW 3576   3.153   2.111   2.792  0.0372  0.3914 -0.0735
 1132SOL    HW1 3577   3.145   2.023   2.745 -0.7225  1.7665 -2.7440
 1132SOL    HW2 3578   3.129   2.184   2.728 -3.2189  2.3619  3.0324
 1133SOL     OW 3579   2.793   1.875   1.083 -0.6542  0.0789 -0.2572
 1133SOL    HW1 3580   2.877   1.829   1.054 -1.0411 -1.8111  1.4274
 1133SOL    HW2 3581   2.748   1.915   1.003  1.4838  0.5768 -1.2781
 1134SOL     OW 3582   1.814   3.488   1.902 -0.1510 -0.6695 -0.1390
 1134SOL    HW1 3583   1.882   3.417   1.918  0.3576 -0.4374 -1.1833
 1134SOL    HW2 3584   1.813   3.551   1.981 -0.0091 -1.3434  0.4104
 1135SOL     OW 3585   3.079   1.531   0.603 -0.1081 -1.3239  0.4980
 1135SOL    HW1 3586   3.160   1.588   0.599  0.5114 -2.2292 -0.2021
 1135SOL    HW2 3587   3.064   1.488   0.514 -1.7214 -0.6936  0.4335
 1136SOL     OW 3588   1.866   0.605   1.761  0.0550  0.1740  0.1083
 1136SOL    HW1 3589   1.780   0.625   1.808 -0.2249  1.3560 -0.8852
 1136SOL    HW2 3590   1.849   0.539   1.688 -0.4019  1.7733 -1.2934
 1137SOL     OW 3591   1.242   1.336   1.096 -0.6104  0.5653  0.4757
 1137SOL    HW1 3592   1.255   1.411   1.031  0.9191 -1.3683 -1.5915
 1137SOL    HW2 3593   1.330   1.293   1.115 -1.4316 -0.6445  1.7226
 1138SOL     OW 3594   3.323   2.460   0.918  0.4988 -0.0114  0.4730
 1138SOL    HW1 3595   3.261   2.384   0.936  0.7698 -1.0872 -2.6414
 1138SOL    HW2 3596   3.414   2.425   0.897  0.8330  1.2065 -0.2310
 1139SOL     OW 3597   3.286   3.165   1.934  0.2185  0.4543  0.0806
 1139SOL    HW1 3598   3.309   3.068   1.948  1.1010  0.7117  0.4788
 1139SOL    HW2 3599   3.239   3.199   2.015 -0.9973  0.1113 -0.4566
 1140SOL     OW 3600   1.286   0.892   2.569 -0.1273  0.6781  0.3279
 1140SOL    HW1 3601   1.284   0.804   2.520  2.8928  0.3171  0.7037
 1140SOL    HW2 3602   1.306   0.965   2.504 -0.9569  0.8854  0.2928
 1141SOL     OW 3603   0.787   3.052   2.681  0.3208 -0.0023 -0.3210
 1141SOL    HW1 3604   0.839   2.971   2.709  0.2022 -0.3310 -1.0192
 1141SOL    HW2 3605   0.689   3.028   2.681 -0.1072  1.1874  3.0229
 1142SOL     OW 3606   0.468   2.647   1.903  0.1496  0.2355  0.3088
 1142SOL    HW1 3607   0.407   2.648   1.982 -1.4903 -0.5601 -0.9132
 1142SOL    HW2 3608   0.420   2.611   1.824  1.5229  1.6787 -1.2710
 1143SOL     OW 3609   1.568   2.100   2.691  0.7438 -0.6905  0.1779
 1143SOL    HW1 3610   1.657   2.129   2.655  0.7504 -1.2078 -0.2337
 1143SOL    HW2 3611   1.535   2.023   2.637 -1.1756  1.0792 -1.3678
 1144SOL     OW 3612   3.057   3.453   0.849 -0.4335  0.6378  0.8377
 1144SOL    HW1 3613   3.093   3.443   0.756 -0.6171  0.1146  0.8218
 1144SOL    HW2 3614   2.992   3.529   0.851 -1.0663  0.1184  0.3474
 1145SOL     OW 3615   2.484   1.700   3.302  0.7082  0.2020  0.2465
 1145SOL    HW1 3616   2.561   1.659   3.252  1.8219  2.0904  0.3249
 1145SOL    HW2 3617   2.520   1.754   3.379 -0.8681 -1.0557  1.9572
 1146SOL     OW 3618   0.126   2.459   3.069  0.5027  0.2633 -0.1344
 1146SOL    HW1 3619   0.151   2.464   2.972 -0.6202  0.5127 -0.4331
 1146SOL    HW2 3620   0.099   2.365   3.092 -0.4567  0.4619 -0.4029
 1147SOL     OW 3621   1.878   2.684   0.845 -0.8252  0.5079 -0.0356
 1147SOL    HW1 3622   1.957   2.704   0.904  0.4302  0.4775 -1.6383
 1147SOL    HW2 3623   1.877   2.587   0.823 -2.2830  0.1910  1.2635
 1148SOL     OW 3624   2.967   1.406   1.949  0.3201 -0.5904  0.2866
 1148SOL    HW1 3625   2.960   1.358   1.862 -0.2434 -0.3272  0.1815
 1148SOL    HW2 3626   3.049   1.375   1.998  1.4600  0.3052 -0.9711
 1149SOL     OW 3627   1.326   1.378   1.621 -0.5201  0.3946 -0.0527
 1149SOL    HW1 3628   1.408   1.322   1.620 -0.2761  0.6738  1.5884
 1149SOL    HW2 3629   1.279   1.368   1.534  0.0620 -1.5359 -0.2061
 1150SOL     OW 3630   0.153   1.592   0.427 -0.5808  0.0764 -0.2401
 1150SOL    HW1 3631   0.219   1.530   0.385 -0.6562  0.7386 -1.3728
 1150SOL    HW2 3632   0.192   1.683   0.435 -2.0200  1.0429 -2.9661
 1151SOL     OW 3633   0.160   2.217   1.561  0.2035 -0.6407 -0.2665
 1151SOL    HW1 3634   0.220   2.147   1.521  2.5321  0.2832  1.3816
 1151SOL    HW2 3635   0.154   2.202   1.659 -2.3853 -0.6982 -0.3790
 1152SOL     OW 3636   0.945   0.817   3.483 -0.0417 -0.1838  0.3614
 1152SOL    HW1 3637   0.868   0.849   3.428 -0.0511 -1.4503 -0.4044
 1152SOL    HW2 3638   1.030   0.843   3.438  0.0523  2.3923  1.8846
 1153SOL     OW 3639   3.222   3.099   1.124  0.2229 -0.8464 -0.1128
 1153SOL    HW1 3640   3.215   3.068   1.219  2.4226  0.1110  0.4221
 1153SOL    HW2 3641   3.144   3.158   1.103  0.0315 -0.5534  1.3003
 1154SOL     OW 3642   0.238   1.566   2.770 -0.4409 -0.1206 -0.4092
 1154SOL    HW1 3643   0.254   1.627   2.847  2.8972 -1.7745  0.3699
 1154SOL    HW2 3644   0.150   1.519   2.783  0.5771 -1.2846  3.1351
 1155SOL     OW 3645   2.077   1.196   1.802  0.2312 -0.4317 -0.5018
 1155SOL    HW1 3646   2.121   1.107   1.789  1.4381 -0.0867  0.9209
 1155SOL    HW2 3647   2.147   1.267   1.804 -0.3577  0.1663  1.6256
 1156SOL     OW 3648   2.635   0.965   1.570 -0.1635 -0.0962 -0.4911
 1156SOL    HW1 3649   2.628   1.058   1.605 -0.6331 -0.7107  1.1526
 1156SOL    HW2 3650   2.729   0.948   1.541 -0.1819  1.0268 -1.2832
 1157SOL     OW 3651   0.617   3.075   0.974  0.3248  0.1752 -0.0254
 1157SOL    HW1 3652   0.676   3.105   1.049  0.0811  2.7721 -0.7744
 1157SOL    HW2 3653   0.603   3.150   0.911 -0.7935 -1.4742 -1.8668
 1158SOL     OW 3654   0.293   1.832   1.733 -0.6025 -0.1942  0.0047
 1158SOL    HW1 3655   0.388   1.861   1.719 -0.5594 -0.5853 -0.5653
 1158SOL    HW2 3656   0.286   1.782   1.819 -0.4880  0.6680  0.5274
 1159SOL     OW 3657   1.572   2.450   1.896  0.2903 -0.3671 -0.1398
 1159SOL    HW1 3658   1.614   2.426   1.809  0.3321 -2.3032  0.3549
 1159SOL    HW2 3659   1.612   2.535   1.930  1.3775 -0.3983 -1.2814
 1160SOL     OW 3660   1.927   2.038   1.415  0.0241  0.0541  0.0877
 1160SOL    HW1 3661   1.996   1.986   1.365  0.2392  0.0380  0.4007
 1160SOL    HW2 3662   1.931   2.013   1.511 -0.7378 -0.2970  0.0344
 1161SOL     OW 3663   2.340   1.968   0.292  0.3196 -0.1477  0.3297
 1161SOL    HW1 3664   2.417   1.962   0.229 -0.6016 -0.0932 -0.8403
 1161SOL    HW2 3665   2.259   1.999   0.242 -0.8413 -1.6487  1.1863
 1162SOL     OW 3666   0.132   1.468   1.773 -0.1439 -0.3505 -0.2227
 1162SOL    HW1 3667   0.198   1.543   1.771 -2.4840  1.8959  0.8183
 1162SOL    HW2 3668   0.092   1.462   1.864 -2.1358 -0.8781 -1.0769
 1163SOL     OW 3669   3.087   0.338   1.882 -0.5579 -0.0688  0.5748
 1163SOL    HW1 3670   3.131   0.426   1.900  0.5392 -0.1495 -1.4657
 1163SOL    HW2 3671   2.993   0.354   1.853 -0.3167  0.4538  0.0601
 1164SOL     OW 3672   0.257   3.431   1.023 -0.1288  0.4484 -0.3408
 1164SOL    HW1 3673   0.211   3.494   0.961 -0.7410 -0.5995 -0.9868
 1164SOL    HW2 3674   0.188   3.384   1.079  0.3616  0.8226  0.5985
 1165SOL     OW 3675   1.449   1.699   3.422 -0.7096 -1.1253 -0.1709
 1165SOL    HW1 3676   1.417   1.782   3.375 -0.6194 -1.8094 -1.4665
 1165SOL    HW2 3677   1.463   1.720   3.519 -1.0432  0.2808 -0.4064
 1166SOL     OW 3678   1.328   2.888   1.717  0.2682  0.2507  0.0225
 1166SOL    HW1 3679   1.289   2.979   1.729 -0.3661  0.0983 -0.7673
 1166SOL    HW2 3680   1.319   2.861   1.621  1.6238 -0.1166 -0.0279
 1167SOL     OW 3681   1.935   1.605   0.753  0.0088  0.6265  0.1354
 1167SOL    HW1 3682   1.983   1.691   0.735 -0.9532  1.4094  1.1308
 1167SOL    HW2 3683   2.000   1.538   0.788  1.0098  0.5350 -1.7858
 1168SOL     OW 3684   0.582   1.902   3.337 -0.0274  0.2665 -0.1157
 1168SOL    HW1 3685   0.666   1.894   3.390  0.2193 -0.1692 -0.5571
 1168SOL    HW2 3686   0.509   1.850   3.382  0.0850  0.1954 -0.0149
 1169SOL     OW 3687   1.910   3.446   1.180  0.1617 -0.1788  0.2923
 1169SOL    HW1 3688   1.835   3.496   1.136  0.9249  0.5038 -0.2452
 1169SOL    HW2 3689   1.994   3.459   1.128  0.6744 -0.9085  0.9127
 1170SOL     OW 3690   0.651   1.454   0.433 -0.2634  0.3568  0.1853
 1170SOL    HW1 3691   0.653   1.442   0.533 -1.0629 -3.0313 -0.0884
 1170SOL    HW2 3692   0.717   1.392   0.391 -2.7591 -1.3347 -1.5173
 1171SOL     OW 3693   2.928   1.723   2.625 -0.1191  0.1841 -0.3127
 1171SOL    HW1 3694   2.967   1.785   2.558  0.7418  0.6206  0.5640
 1171SOL    HW2 3695   2.874   1.776   2.691  0.3313 -0.0172  0.2344
 1172SOL     OW 3696   2.305   1.521   0.052 -0.8587  0.2588  0.3437
 1172SOL    HW1 3697   2.259   1.608   0.036 -1.7306 -0.0229  1.2086
 1172SOL    HW2 3698   2.382   1.535   0.115 -1.9188  0.1895  1.7049
 1173SOL     OW 3699   3.585   1.549   0.192  0.4947  0.2536 -0.0690
 1173SOL    HW1 3700   3.658   1.571   0.256  0.5463 -0.3582  0.0891
 1173SOL    HW2 3701   3.497   1.571   0.234  0.6067  1.6322 -0.5203
 1174SOL     OW 3702   2.658   3.466   1.691  0.1176 -0.5064  0.9904
 1174SOL    HW1 3703   2.754   3.492   1.688  0.1736 -0.5690 -2.4718
 1174SOL    HW2 3704   2.645   3.384   1.636 -1.9905 -0.2140  0.9714
 1175SOL     OW 3705   0.874   3.543   0.193 -0.3142  0.5645  0.1366
 1175SOL    HW1 3706   0.953   3.605   0.202 -0.2732  0.4705  0.4150
 1175SOL    HW2 3707   0.836   3.553   0.101 -0.6628  1.4293  0.3610
 1176SOL     OW 3708   2.093   0.940   0.808 -0.2033  0.0788  0.0039
 1176SOL    HW1 3709   2.145   0.897   0.735  0.7621  0.6396  0.3374
 1176SOL    HW2 3710   2.021   0.997   0.769 -2.0411 -2.3516 -0.4569
 1177SOL     OW 3711   0.611   0.527   3.512 -0.3236 -0.2850 -0.3659
 1177SOL    HW1 3712   0.553   0.446   3.524 -1.0293  0.5081  2.3649
 1177SOL    HW2 3713   0.562   0.607   3.546  0.9394  1.0764 -1.6247
 1178SOL     OW 3714   1.645   0.636   2.002  0.5217 -0.3399 -0.2723
 1178SOL    HW1 3715   1.681   0.703   2.068 -2.1869 -0.2348  1.2326
 1178SOL    HW2 3716   1.700   0.553   2.007  1.3500  0.2468  0.9592
 1179SOL     OW 3717   0.674   0.445   2.861  0.1094 -0.6904  0.5975
 1179SOL    HW1 3718   0.659   0.364   2.917 -1.7110 -0.7539  0.0676
 1179SOL    HW2 3719   0.623   0.522   2.899 -0.7467 -0.6076 -0.6570
 1180SOL     OW 3720   2.926   1.613   1.573 -0.4660 -0.3916  0.5834
 1180SOL    HW1 3721   3.014   1.644   1.607  0.0697 -3.1971  2.0125
 1180SOL    HW2 3722   2.924   1.623   1.473  2.4309 -2.3402  0.2219
 1181SOL     OW 3723   1.143   2.016   2.498  0.6496  0.7978 -0.1424
 1181SOL    HW1 3724   1.166   1.921   2.475 -1.3949  0.4505 -0.9875
 1181SOL    HW2 3725   1.182   2.038   2.588  1.4634 -0.7097 -0.0802
 1182SOL     OW 3726   0.629   1.210   2.014  0.2919  0.1266 -0.0742
 1182SOL    HW1 3727   0.549   1.212   2.074 -0.2536  1.6293 -0.7985
 1182SOL    HW2 3728   0.608   1.154   1.933  0.2139 -0.0268  0.0521
 1183SOL     OW 3729   2.282   1.375   1.773  0.2581  0.5436 -0.4967
 1183SOL    HW1 3730   2.327   1.458   1.805  1.5056 -0.5573  0.8038
 1183SOL    HW2 3731   2.340   1.330   1.705 -0.4180  0.7476 -1.2116
 1184SOL     OW 3732   2.019   1.988   2.899  0.5216 -0.0926 -0.6965
 1184SOL    HW1 3733   1.946   2.045   2.860 -1.1426 -0.5836  1.5284
 1184SOL    HW2 3734   2.002   1.892   2.875 -1.1909 -0.5543  2.0086
 1185SOL     OW 3735   1.871   0.824   2.605  0.4739 -0.4473  0.0666
 1185SOL    HW1 3736   1.909   0.739   2.642  0.9011 -0.8650 -1.2944
 1185SOL    HW2 3737   1.786   0.803   2.558  0.6240 -0.1389 -0.3432
 1186SOL     OW 3738   2.868   3.244   1.978 -0.0686  0.1725  0.2471
 1186SOL    HW1 3739   2.923   3.168   2.013 -0.0717 -0.1292 -0.3758
 1186SOL    HW2 3740   2.778   3.210   1.952  0.2567  0.1664 -0.9596
 1187SOL     OW 3741   2.870   2.142   1.123  0.2408  0.5976 -0.2540
 1187SOL    HW1 3742   2.800   2.105   1.062 -0.1260  1.1705 -0.1872
 1187SOL    HW2 3743   2.944   2.075   1.133 -0.7568 -0.4314  0.4739
 1188SOL     OW 3744   2.968   2.665   3.543  0.5540  0.1735 -0.1191
 1188SOL    HW1 3745   2.872   2.650   3.523  0.7096 -3.4988  1.1315
 1188SOL    HW2 3746   2.983   2.763   3.561 -3.0965  0.7582  0.5539
 1189SOL     OW 3747   1.827   2.285   1.458 -0.5576  0.6572  0.1653
 1189SOL    HW1 3748   1.829   2.185   1.464 -0.0982  0.7316  2.0558
 1189SOL    HW2 3749   1.734   2.314   1.436 -1.0709 -0.1611  1.1537
 1190SOL     OW 3750   3.587   0.639   2.864 -0.1866 -0.3597  0.8170
 1190SOL    HW1 3751   3.671   0.648   2.811 -1.4187  0.4535 -1.1071
 1190SOL    HW2 3752   3.575   0.543   2.890  0.4406 -0.7899 -0.4235
 1191SOL     OW 3753   0.958   0.891   3.135  0.8476 -0.0935 -0.0767
 1191SOL    HW1 3754   0.905   0.864   3.055  0.6335 -1.7947  0.6133
 1191SOL    HW2 3755   0.896   0.924   3.206  0.9241  0.0606 -0.0794
 1192SOL     OW 3756   1.635   2.841   3.503  0.3735  0.1172 -0.1453
 1192SOL    HW1 3757   1.721   2.869   3.459  2.1799 -0.9803  2.4076
 1192SOL    HW2 3758   1.597   2.762   3.456  1.2379  0.0821 -0.7992
 1193SOL     OW 3759   3.231   0.060   1.438  0.4030  0.0535 -0.2108
 1193SOL    HW1 3760   3.137   0.056   1.403  0.0034  2.0994  0.4938
 1193SOL    HW2 3761   3.231   0.105   1.527  1.8901 -1.3669  0.5601
 1194SOL     OW 3762   1.424   2.928   2.447  0.3321 -0.3740 -0.4685
 1194SOL    HW1 3763   1.492   2.962   2.382 -0.8918 -0.4114 -1.8100
 1194SOL    HW2 3764   1.342   2.984   2.441 -0.6445 -1.7829 -0.6128
 1195SOL     OW 3765   0.311   2.702   2.460  0.0376  0.6571  0.1381
 1195SOL    HW1 3766   0.360   2.625   2.501 -0.4249 -0.0993 -0.6812
 1195SOL    HW2 3767   0.362   2.786   2.477  0.1547  0.2929  1.7175
 1196SOL     OW 3768   3.077   0.665   3.424  0.2452 -0.4893  0.5548
 1196SOL    HW1 3769   3.040   0.754   3.451 -1.0186 -0.1783 -1.9217
 1196SOL    HW2 3770   3.135   0.676   3.343  1.5649 -1.7131  1.2808
 1197SOL     OW 3771   0.961   3.111   3.391  0.1546  0.6755 -0.1713
 1197SOL    HW1 3772   0.955   3.155   3.301 -0.4741 -1.7488 -1.3817
 1197SOL    HW2 3773   1.013   3.170   3.453  1.3747  1.9990 -2.3592
 1198SOL     OW 3774   1.419   2.352   2.447 -0.1455 -0.5034 -0.5872
 1198SOL    HW1 3775   1.393   2.277   2.386 -1.9770 -0.6045  0.2565
 1198SOL    HW2 3776   1.420   2.318   2.541  2.5795 -0.3297 -0.4764
 1199SOL     OW 3777   2.975   0.443   2.199  0.1771 -0.0161  0.0367
 1199SOL    HW1 3778   3.026   0.360   2.175 -1.2891 -0.8246 -0.3553
 1199SOL    HW2 3779   2.878   0.421   2.208 -0.0178  1.3000  1.6927
 1200SOL     OW 3780   3.170   0.970   2.421  0.1774 -0.1302  0.5485
 1200SOL    HW1 3781   3.175   0.871   2.433 -0.3082 -0.1483  0.6241
 1200SOL    HW2 3782   3.096   1.007   2.478 -0.2432  0.1525 -0.1563
 1201SOL     OW 3783   1.991   0.662   3.017 -0.3527 -0.2114  0.6933
 1201SOL    HW1 3784   1.945   0.583   3.059  0.3212 -0.7394  0.4694
 1201SOL    HW2 3785   2.090   0.652   3.031 -0.2682  0.6371  0.7191
 1202SOL     OW 3786   1.595   0.665   1.301 -0.4317  0.3828  0.4731
 1202SOL    HW1 3787   1.607   0.655   1.203 -1.0394  0.0260  0.4315
 1202SOL    HW2 3788   1.662   0.731   1.336 -0.7418  1.1100 -0.2958
 1203SOL     OW 3789   2.147   0.004   1.969 -0.0704  0.7835 -0.2361
 1203SOL    HW1 3790   2.116  -0.091   1.972  0.0670  0.7647  0.9754
 1203SOL    HW2 3791   2.152   0.033   1.873 -0.2208 -0.3883 -0.6249
 1204SOL     OW 3792   2.008   0.346   1.933  0.7915  0.3172  0.4950
 1204SOL    HW1 3793   2.091   0.397   1.911  1.4789 -0.6034  0.8971
 1204SOL    HW2 3794   1.992   0.277   1.862 -0.2052  1.1519 -0.1159
 1205SOL     OW 3795   1.334   1.958   2.845  0.2739  0.0630 -0.7632
 1205SOL    HW1 3796   1.428   1.959   2.811  0.8096 -0.7472  0.5974
 1205SOL    HW2 3797   1.279   2.022   2.792  1.8335  1.3367 -0.9126
 1206SOL     OW 3798   3.514   2.956   0.514 -0.3629 -0.1337  0.4697
 1206SOL    HW1 3799   3.418   2.976   0.532 -0.3120 -0.8670  1.6927
 1206SOL    HW2 3800   3.547   2.889   0.581  0.7924 -0.4839 -0.4106
 1207SOL     OW 3801   2.505   1.210   0.052  0.1074  0.0111 -0.5085
 1207SOL    HW1 3802   2.508   1.113   0.076 -4.0405 -0.1283  0.1410
 1207SOL    HW2 3803   2.507   1.219  -0.048  0.2064 -0.7548 -0.5842
 1208SOL     OW 3804   1.826   1.212   3.506  0.2234  0.0687  0.3684
 1208SOL    HW1 3805   1.737   1.205   3.551  0.0669 -0.3693  0.0037
 1208SOL    HW2 3806   1.899   1.201   3.574 -0.0014 -2.6424  0.2722
 1209SOL     OW 3807   2.999   2.554   2.931 -0.4202 -0.3687  0.5092
 1209SOL    HW1 3808   3.053   2.549   2.847 -1.8344  3.1834 -0.8019
 1209SOL    HW2 3809   3.018   2.640   2.977 -2.8527 -0.2996  1.5087
 1210SOL     OW 3810   3.526   3.205   1.356  0.1742 -0.6490  0.0919
 1210SOL    HW1 3811   3.467   3.276   1.320  0.6593 -0.5681 -0.5619
 1210SOL    HW2 3812   3.519   3.204   1.456  0.5012  0.6156  0.1456
 1211SOL     OW 3813   3.556   2.922   3.104 -0.0966  0.0660 -0.4942
 1211SOL    HW1 3814   3.587   2.947   3.012 -0.9933  0.0338 -0.8214
 1211SOL    HW2 3815   3.585   2.991   3.169  1.6231 -0.5167 -0.5764
 1212SOL     OW 3816   0.826   1.328   1.489  0.0008  0.2150  0.0065
 1212SOL    HW1 3817   0.830   1.389   1.568 -2.7521  0.1065  0.3345
 1212SOL    HW2 3818   0.796   1.380   1.409 -0.2143 -0.2804 -0.2393
 1213SOL     OW 3819   2.873   2.559   1.521  0.8393  0.4392 -0.4371
 1213SOL    HW1 3820   2.855   2.465   1.493  1.3311 -0.3874  1.8315
 1213SOL    HW2 3821   2.962   2.588   1.486  0.6119  0.1412 -1.2820
 1214SOL     OW 3822   2.728   1.877   2.357  0.1058  0.3509 -0.1983
 1214SOL    HW1 3823   2.827   1.871   2.366  0.0282 -0.8254  0.0208
 1214SOL    HW2 3824   2.689   1.785   2.364 -1.0845  0.9024  0.8624
 1215SOL     OW 3825   0.343   3.475   1.423 -0.4348 -0.3772  0.2089
 1215SOL    HW1 3826   0.431   3.464   1.467 -1.4748 -1.3765  2.1666
 1215SOL    HW2 3827   0.356   3.514   1.331  1.9724 -0.3178  0.5283
 1216SOL     OW 3828   0.543   1.055   0.361 -0.5730 -0.9449  0.2271
 1216SOL    HW1 3829   0.581   1.066   0.453 -0.3432 -0.3845  0.0732
 1216SOL    HW2 3830   0.451   1.094   0.358 -0.8210 -1.5060  0.3702
 1217SOL     OW 3831   0.046   2.094   2.480  0.0430  0.1338 -0.1935
 1217SOL    HW1 3832  -0.020   2.062   2.548  0.5505  1.6956  1.1170
 1217SOL    HW2 3833   0.135   2.105   2.524  0.7587 -0.2934 -1.5067
 1218SOL     OW 3834   0.206   2.160   1.834 -0.0504  0.0017  0.1854
 1218SOL    HW1 3835   0.120   2.108   1.835  1.0924 -2.0237  0.1409
 1218SOL    HW2 3836   0.261   2.132   1.913  0.7796  0.8777 -0.0720
 1219SOL     OW 3837   1.452   1.927   0.288  0.1147 -0.2069  0.3249
 1219SOL    HW1 3838   1.475   1.841   0.334  0.5599 -0.6399 -0.6571
 1219SOL    HW2 3839   1.352   1.934   0.279  0.0157 -0.0708  1.3946
 1220SOL     OW 3840   1.962   1.727   2.824 -0.1195  0.2777  0.4308
 1220SOL    HW1 3841   1.920   1.782   2.752  0.9251 -0.6094 -0.9069
 1220SOL    HW2 3842   1.910   1.642   2.835  1.3175 -0.9101 -1.3618
 1221SOL     OW 3843   0.254   1.698   1.491  0.3723  0.2157 -0.2169
 1221SOL    HW1 3844   0.236   1.746   1.576 -1.7164 -0.7753 -0.0420
 1221SOL    HW2 3845   0.222   1.754   1.414  1.1371  0.5765 -0.2843
 1222SOL     OW 3846   3.343   1.756   2.085  0.7202 -0.3654 -0.6771
 1222SOL    HW1 3847   3.271   1.741   2.017 -0.6840  2.9968 -0.0778
 1222SOL    HW2 3848   3.418   1.807   2.042  1.7401 -1.7968 -0.6744
 1223SOL     OW 3849   1.871   3.290   3.053 -0.5909  0.0580 -0.4459
 1223SOL    HW1 3850   1.953   3.240   3.081  1.0202  3.0292  0.5671
 1223SOL    HW2 3851   1.899   3.371   3.002 -3.0913 -0.0238 -2.1119
 1224SOL     OW 3852   3.360   0.492   3.436 -0.1676  0.3152 -0.2228
 1224SOL    HW1 3853   3.296   0.531   3.370  1.1518  1.2936 -0.9834
 1224SOL    HW2 3854   3.344   0.533   3.525 -0.9087  0.1915 -0.2925
 1225SOL     OW 3855   3.280   0.489   1.357  0.1081 -0.1859  0.3182
 1225SOL    HW1 3856   3.192   0.457   1.390 -0.3225 -1.5399 -1.9609
 1225SOL    HW2 3857   3.353   0.435   1.399 -0.2039  0.1143  1.2706
 1226SOL     OW 3858   0.104   1.417   2.279 -0.4408  0.0171  0.2709
 1226SOL    HW1 3859   0.062   1.476   2.348 -2.8669 -1.9022  0.5585
 1226SOL    HW2 3860   0.144   1.336   2.325 -1.5194 -0.9632 -0.4733
 1227SOL     OW 3861   1.898   0.265   0.775  0.3868 -0.4216 -0.0529
 1227SOL    HW1 3862   1.801   0.244   0.789 -0.0592  1.5431 -0.0059
 1227SOL    HW2 3863   1.913   0.285   0.678  1.1230 -2.3787 -0.3865
 1228SOL     OW 3864   3.218   0.230   0.322  0.2807  0.1621  0.3456
 1228SOL    HW1 3865   3.189   0.178   0.402  0.3200  0.2272  0.4019
 1228SOL    HW2 3866   3.138   0.273   0.280  0.2341 -0.0254  0.2403
 1229SOL     OW 3867   1.759   1.565   0.959 -0.0914 -0.6565 -0.0416
 1229SOL    HW1 3868   1.827   1.579   0.887 -0.7663  0.3337 -0.5045
 1229SOL    HW2 3869   1.761   1.642   1.022 -2.1163  0.4111 -1.1865
 1230SOL     OW 3870   0.258   3.168   1.606 -0.3185  0.3756 -0.2969
 1230SOL    HW1 3871   0.337   3.127   1.651 -1.2334 -1.0183  0.1047
 1230SOL    HW2 3872   0.262   3.150   1.508 -1.1514 -1.5079 -0.0176
 1231SOL     OW 3873   1.478   0.725   1.618  0.2745 -0.3144  0.3075
 1231SOL    HW1 3874   1.573   0.754   1.602 -0.4509  1.2790 -1.4951
 1231SOL    HW2 3875   1.457   0.648   1.558 -0.0531  0.4486 -0.5811
 1232SOL     OW 3876   0.541   0.579   2.420 -0.0202 -0.2426 -0.2629
 1232SOL    HW1 3877   0.547   0.485   2.452  1.7658 -0.8137 -2.0880
 1232SOL    HW2 3878   0.565   0.641   2.495  2.3067 -1.4311  0.0615
 1233SOL     OW 3879   2.221   0.804   3.252  0.3483 -0.6336  0.1462
 1233SOL    HW1 3880   2.156   0.858   3.305 -0.7846  0.0831 -1.8531
 1233SOL    HW2 3881   2.280   0.865   3.199  1.3094 -1.3228  0.3793
 1234SOL     OW 3882   1.078   1.112   2.740 -0.1136 -0.1001  0.4844
 1234SOL    HW1 3883   1.063   1.016   2.760  2.5870 -0.1520  2.9511
 1234SOL    HW2 3884   1.005   1.167   2.782 -0.1927 -0.9400  1.4865
 1235SOL     OW 3885   0.025   0.695   1.302 -0.4191 -0.1244  0.0538
 1235SOL    HW1 3886   0.124   0.697   1.312 -0.4099 -1.4079  0.4094
 1235SOL    HW2 3887  -0.003   0.606   1.266 -1.4999 -0.0410  0.6338
 1236SOL     OW 3888   0.134   2.719   3.127 -0.3313 -0.3240  0.1172
 1236SOL    HW1 3889   0.039   2.749   3.115 -0.8282 -1.0646  1.9017
 1236SOL    HW2 3890   0.140   2.621   3.112  0.0388 -0.3666  0.5144
 1237SOL     OW 3891   1.428   0.252   2.437  0.0251  0.8560  0.4616
 1237SOL    HW1 3892   1.527   0.257   2.422 -0.0783  0.9471 -0.2307
 1237SOL    HW2 3893   1.409   0.183   2.506  0.2826 -2.9477 -2.9009
 1238SOL     OW 3894   1.256   3.327   1.957 -0.7519 -0.3778 -0.3131
 1238SOL    HW1 3895   1.347   3.366   1.942 -0.7585 -0.1782  0.1271
 1238SOL    HW2 3896   1.206   3.326   1.871 -0.9769  1.1978 -0.2372
 1239SOL     OW 3897   1.839   1.856   2.591 -0.0123 -0.0483 -0.4878
 1239SOL    HW1 3898   1.764   1.837   2.655 -2.0494 -0.1398 -2.7522
 1239SOL    HW2 3899   1.827   1.948   2.552  0.7811 -0.2525 -1.2511
 1240SOL     OW 3900   0.136   3.376   0.698 -0.1815  0.4117 -0.1520
 1240SOL    HW1 3901   0.147   3.460   0.751  1.8544  1.1102 -1.5192
 1240SOL    HW2 3902   0.093   3.306   0.755  0.4024  1.6042  1.8628
 1241SOL     OW 3903   2.223   0.408   0.527  0.2568  0.4611 -0.4072
 1241SOL    HW1 3904   2.231   0.486   0.465 -0.6607  3.7025  3.1872
 1241SOL    HW2 3905   2.126   0.385   0.537  0.4918 -0.8909 -1.0324
 1242SOL     OW 3906   0.004   2.415   2.060 -0.2373  0.3764 -0.3792
 1242SOL    HW1 3907  -0.092   2.424   2.034 -0.0717  0.5687 -0.9282
 1242SOL    HW2 3908   0.010   2.372   2.151 -0.8592  0.9092 -0.0809
 1243SOL     OW 3909   3.288   3.561   0.973  0.2607  0.3129 -0.0097
 1243SOL    HW1 3910   3.199   3.552   0.929  0.5187 -0.6754 -0.3582
 1243SOL    HW2 3911   3.312   3.474   1.016  0.7958  0.7476  0.5888
 1244SOL     OW 3912   2.106   3.085   0.064 -0.6098  0.3106 -0.1733
 1244SOL    HW1 3913   2.055   3.010   0.105  0.7034 -0.2678  0.4967
 1244SOL    HW2 3914   2.094   3.084  -0.035 -1.1601 -0.3611 -0.1026
 1245SOL     OW 3915   1.672   1.848   1.088 -0.0221  0.0993 -0.0053
 1245SOL    HW1 3916   1.590   1.866   1.033 -1.3648  0.0756  1.8611
 1245SOL    HW2 3917   1.715   1.935   1.113  0.0453  0.1577 -0.3286
 1246SOL     OW 3918   0.324   0.799   2.915 -0.1921 -0.3819  0.1120
 1246SOL    HW1 3919   0.304   0.766   2.823 -1.8762  2.1616 -0.5257
 1246SOL    HW2 3920   0.240   0.830   2.959  0.8495  0.2562  1.7762
 1247SOL     OW 3921   1.803   1.633   2.449  0.8460 -0.1700  0.3551
 1247SOL    HW1 3922   1.718   1.656   2.402  0.7172 -2.7016 -0.8490
 1247SOL    HW2 3923   1.845   1.716   2.483 -0.0301  1.6509 -2.5960
 1248SOL     OW 3924   0.163   1.152   2.941  0.1645 -0.2476  0.0181
 1248SOL    HW1 3925   0.233   1.127   2.874 -0.6685 -1.1578 -0.5482
 1248SOL    HW2 3926   0.122   1.069   2.979 -1.3179  0.2308 -0.4364
 1249SOL     OW 3927   1.947   1.712   3.454  0.3929 -0.0918  0.0976
 1249SOL    HW1 3928   2.021   1.724   3.520  0.8931 -0.8878 -0.3029
 1249SOL    HW2 3929   1.940   1.615   3.430  1.4099  0.3637 -2.3647
 1250SOL     OW 3930   2.551   0.861   2.609  0.5114  0.1724  0.0477
 1250SOL    HW1 3931   2.578   0.795   2.539 -0.1634  0.3616 -0.3986
 1250SOL    HW2 3932   2.520   0.945   2.565 -0.8493 -0.0524  0.5178
 1251SOL     OW 3933   1.159   3.495   1.477  0.6337  0.1570 -0.2854
 1251SOL    HW1 3934   1.125   3.402   1.462 -0.5429  0.6026 -0.5465
 1251SOL    HW2 3935   1.258   3.494   1.481  0.6968 -0.9454 -1.5176
 1252SOL     OW 3936   1.808   0.481   1.492 -0.0809  0.1411  0.6520
 1252SOL    HW1 3937   1.745   0.459   1.417 -1.5285 -0.2935  1.9442
 1252SOL    HW2 3938   1.902   0.479   1.457 -0.5889 -1.6384 -0.7821
 1253SOL     OW 3939   0.397   2.491   2.615 -0.4927 -0.1315 -0.4203
 1253SOL    HW1 3940   0.443   2.546   2.684 -2.2686 -0.4927  1.1308
 1253SOL    HW2 3941   0.461   2.423   2.578  1.1442  1.5945 -0.8989
 1254SOL     OW 3942   1.787   2.851   1.111 -0.3358  0.1488 -0.7544
 1254SOL    HW1 3943   1.854   2.902   1.057  0.9081  1.6645  2.0060
 1254SOL    HW2 3944   1.716   2.914   1.143 -0.6583 -0.5403 -0.0825
 1255SOL     OW 3945   1.920   3.195   1.267 -0.2430 -0.2404 -0.1215
 1255SOL    HW1 3946   1.917   3.292   1.242  0.7451  0.1174  1.0668
 1255SOL    HW2 3947   1.845   3.147   1.221 -0.3345  0.9485 -1.2641
 1256SOL     OW 3948   2.686   2.639   3.535 -0.4516  0.4836 -0.4310
 1256SOL    HW1 3949   2.668   2.581   3.615 -0.3713  0.5169 -0.3888
 1256SOL    HW2 3950   2.655   2.732   3.555 -0.9436  0.3681 -0.6441
 1257SOL     OW 3951   1.919   1.225   1.186  0.2442 -0.6839 -0.1357
 1257SOL    HW1 3952   1.890   1.319   1.205 -0.0514 -0.7129 -0.4446
 1257SOL    HW2 3953   1.997   1.203   1.245 -0.0447 -0.4418  0.3438
 1258SOL     OW 3954   2.014   0.774   3.470  0.3432  0.5166 -0.6651
 1258SOL    HW1 3955   2.077   0.728   3.408 -0.4351  0.5734 -1.5146
 1258SOL    HW2 3956   1.930   0.798   3.420 -0.1219  0.9441  0.3000
 1259SOL     OW 3957   2.763   0.417   3.073 -0.1711 -0.0849  0.9413
 1259SOL    HW1 3958   2.858   0.430   3.103  1.1334 -1.5080 -2.1612
 1259SOL    HW2 3959   2.732   0.499   3.025 -0.2902  0.1325  1.3846
 1260SOL     OW 3960   1.428   0.387   1.714  0.2014  0.0493  0.7647
 1260SOL    HW1 3961   1.341   0.432   1.729  0.3971  0.4029  0.8506
 1260SOL    HW2 3962   1.455   0.399   1.618  0.0390 -0.2675  0.6795
 1261SOL     OW 3963   0.877   0.874   2.097 -0.0029  0.4573 -0.3684
 1261SOL    HW1 3964   0.818   0.842   2.171 -1.0503 -0.5826 -1.5860
 1261SOL    HW2 3965   0.820   0.897   2.018  1.1762 -0.3627 -1.5181
 1262SOL     OW 3966   1.684   2.554   2.969 -0.0023 -0.0254  0.7165
 1262SOL    HW1 3967   1.662   2.643   2.931  1.6641  0.8281  1.6250
 1262SOL    HW2 3968   1.776   2.527   2.939 -0.9278 -2.0518 -0.5562
 1263SOL     OW 3969   3.385   0.089   1.218  0.5087 -0.1227 -0.0307
 1263SOL    HW1 3970   3.336   0.063   1.135 -0.8796 -0.1820  0.7906
 1263SOL    HW2 3971   3.322   0.090   1.295  1.4653  1.3711  0.7762
 1264SOL     OW 3972   2.349   2.331   1.043 -0.4859 -0.2574 -0.5079
 1264SOL    HW1 3973   2.376   2.424   1.070 -0.5695  0.3905 -2.5130
 1264SOL    HW2 3974   2.278   2.298   1.105 -1.6012  1.6507 -0.7083
 1265SOL     OW 3975   1.833   2.365   0.807  0.5257  0.0490  0.1948
 1265SOL    HW1 3976   1.894   2.397   0.734  1.4327  1.0596  1.3383
 1265SOL    HW2 3977   1.853   2.269   0.827 -0.0503 -0.3783 -1.1693
 1266SOL     OW 3978   0.883   0.467   2.178  0.0426  0.3336 -0.1517
 1266SOL    HW1 3979   0.797   0.509   2.148  0.3382  0.4531 -0.8478
 1266SOL    HW2 3980   0.880   0.454   2.277 -1.0946 -0.4040 -0.2626
 1267SOL     OW 3981   2.308   3.233   2.943  0.4047 -0.6084 -0.3813
 1267SOL    HW1 3982   2.255   3.287   2.878  0.7654  3.3993  2.3110
 1267SOL    HW2 3983   2.405   3.240   2.920  0.4997  0.4841  0.2879
 1268SOL     OW 3984   0.923   2.822   2.460  0.1460 -0.0356  0.1321
 1268SOL    HW1 3985   0.921   2.826   2.560  0.2879 -1.0786  0.1866
 1268SOL    HW2 3986   0.832   2.797   2.427  0.0857  0.3635 -0.0115
 1269SOL     OW 3987   2.651   2.462   3.073 -0.0398  0.2407 -0.5427
 1269SOL    HW1 3988   2.707   2.493   3.149 -0.1495  0.4553 -0.5496
 1269SOL    HW2 3989   2.698   2.481   2.987 -0.5885  1.3972 -0.6025
 1270SOL     OW 3990   0.193   0.416   1.867 -0.3023 -0.5209 -0.0027
 1270SOL    HW1 3991   0.193   0.385   1.962 -0.7211 -0.0713  0.1480
 1270SOL    HW2 3992   0.245   0.351   1.811  0.7363 -0.3040  0.6922
 1271SOL     OW 3993   2.980   1.642   1.294  0.0115  0.2752 -0.4274
 1271SOL    HW1 3994   2.937   1.655   1.205  0.9813  1.8209 -0.7048
 1271SOL    HW2 3995   3.078   1.623   1.281  0.0592 -0.0161  0.2923
 1272SOL     OW 3996   1.017   2.508   0.949  0.5211 -0.6344  0.1226
 1272SOL    HW1 3997   1.062   2.595   0.927  1.6319 -1.0438  0.6532
 1272SOL    HW2 3998   0.961   2.479   0.872  1.6692 -0.3876 -0.8358
 1273SOL     OW 3999   1.552   2.025   2.379 -0.2407  0.8605  0.7542
 1273SOL    HW1 4000   1.469   2.057   2.332 -0.0949  0.9452  0.5525
 1273SOL    HW2 4001   1.532   1.938   2.425  0.4518 -0.9816 -2.1775
 1274SOL     OW 4002   2.820   0.906   1.352 -0.2898  0.4310  0.3346
 1274SOL    HW1 4003   2.904   0.958   1.371 -0.2281  0.3148  0.3859
 1274SOL    HW2 4004   2.843   0.808   1.350 -0.4820  0.3781  0.6699
 1275SOL     OW 4005   1.712   0.566   2.759  0.4313 -1.0301  0.0942
 1275SOL    HW1 4006   1.640   0.562   2.689  0.2791  1.0030  0.0714
 1275SOL    HW2 4007   1.752   0.475   2.771 -1.5823 -2.0353 -0.4739
 1276SOL     OW 4008   2.752   2.797   0.352  0.0929 -0.5191 -0.0935
 1276SOL    HW1 4009   2.835   2.741   0.348  0.9231  0.6107  0.6385
 1276SOL    HW2 4010   2.757   2.868   0.281  1.6557  1.9838  2.3121
 1277SOL     OW 4011   0.869   3.336   0.727  0.0275 -0.2196  0.5377
 1277SOL    HW1 4012   0.942   3.292   0.781 -1.7378  0.3543  3.6481
 1277SOL    HW2 4013   0.780   3.308   0.764 -1.2902  1.0955 -1.4623
 1278SOL     OW 4014   0.462   1.238   3.275 -0.0650  0.3306 -0.1645
 1278SOL    HW1 4015   0.375   1.272   3.311  0.2638  1.2580 -0.2079
 1278SOL    HW2 4016   0.471   1.267   3.179 -0.3256 -0.9627 -0.6041
 1279SOL     OW 4017   3.231   2.062   2.125 -0.0375 -0.1330 -0.3224
 1279SOL    HW1 4018   3.243   2.083   2.028  1.5347 -0.8812 -0.3272
 1279SOL    HW2 4019   3.157   1.994   2.135  0.2395 -0.5541 -1.0669
 1280SOL     OW 4020   2.637   0.059   2.046 -0.0515 -0.6906 -0.0420
 1280SOL    HW1 4021   2.616   0.132   1.981  1.1122 -1.4915 -1.3934
 1280SOL    HW2 4022   2.579  -0.020   2.027 -1.0666 -0.2637  1.1911
 1281SOL     OW 4023   0.208   2.519   1.020 -0.5945  0.0978 -0.0468
 1281SOL    HW1 4024   0.251   2.450   0.962  0.8174  0.6805  0.2428
 1281SOL    HW2 4025   0.187   2.478   1.109  0.3225  0.0293  0.1584
 1282SOL     OW 4026   1.291   3.034   0.476 -0.4264  0.0827  0.3254
 1282SOL    HW1 4027   1.334   2.948   0.449 -0.5763  0.4764 -1.2716
 1282SOL    HW2 4028   1.227   3.017   0.551 -1.4455 -1.4485 -0.8355
 1283SOL     OW 4029   2.566   2.288   0.718 -0.1165 -0.1257  0.1358
 1283SOL    HW1 4030   2.536   2.383   0.727  0.8137  0.4241 -2.0149
 1283SOL    HW2 4031   2.593   2.254   0.809  0.4385  1.9657  0.8268
 1284SOL     OW 4032   2.119   1.168   1.003  0.3680  0.1335 -0.3446
 1284SOL    HW1 4033   2.101   1.090   0.943  2.4867 -0.6015 -0.1026
 1284SOL    HW2 4034   2.034   1.195   1.048 -0.3734 -2.2174 -0.2164
 1285SOL     OW 4035   2.420   0.910   3.078  0.2784 -0.6596  0.6232
 1285SOL    HW1 4036   2.517   0.925   3.096  0.2458 -1.5633  1.6711
 1285SOL    HW2 4037   2.410   0.857   2.994  0.6899 -0.5623  0.5108
 1286SOL     OW 4038   2.454   2.935   2.684 -0.6104  0.1558 -0.4024
 1286SOL    HW1 4039   2.461   3.030   2.652 -0.2495  1.1335  2.2898
 1286SOL    HW2 4040   2.543   2.891   2.676 -0.6050  0.2682 -1.0052
 1287SOL     OW 4041   2.353   2.933   0.432  0.7394  0.4638 -0.4007
 1287SOL    HW1 4042   2.356   2.905   0.336  0.9732 -0.1999 -0.2050
 1287SOL    HW2 4043   2.401   2.865   0.488  0.3770  0.7054  0.2163
 1288SOL     OW 4044   1.148   3.073   1.362 -0.5002  0.0355  0.2733
 1288SOL    HW1 4045   1.181   3.124   1.442 -0.4991  1.1943 -0.4482
 1288SOL    HW2 4046   1.131   3.137   1.287 -0.5655 -1.0284 -0.6408
 1289SOL     OW 4047   0.025   0.801   1.569 -0.5344 -0.2087  0.0232
 1289SOL    HW1 4048  -0.043   0.873   1.582 -1.3466 -0.7250 -1.1992
 1289SOL    HW2 4049   0.047   0.793   1.472  1.3415 -0.0166  0.3821
 1290SOL     OW 4050   1.373   0.157   2.177 -0.0959  0.1760  0.2732
 1290SOL    HW1 4051   1.316   0.206   2.112 -0.1074  0.3136  0.3863
 1290SOL    HW2 4052   1.394   0.217   2.254 -1.9176 -0.6418  1.4852
 1291SOL     OW 4053   0.676   0.585   2.040  0.1700  0.7530 -0.1635
 1291SOL    HW1 4054   0.728   0.652   1.988 -0.7693  2.5237  1.0985
 1291SOL    HW2 4055   0.593   0.562   1.990 -0.2287  1.6726  0.0579
 1292SOL     OW 4056   1.303   0.166   0.687 -0.1565 -0.2227  0.5203
 1292SOL    HW1 4057   1.350   0.139   0.602  0.1547  0.3335  0.5150
 1292SOL    HW2 4058   1.250   0.249   0.670 -2.2041 -1.5130  0.1744
 1293SOL     OW 4059   2.951   1.066   2.577 -0.0176 -0.6650 -0.0685
 1293SOL    HW1 4060   2.929   0.970   2.592  0.9289 -0.6740  1.4644
 1293SOL    HW2 4061   2.959   1.112   2.665 -0.4942  0.8426 -0.7836
 1294SOL     OW 4062   1.260   3.427   3.179  0.3350 -0.8121 -0.1281
 1294SOL    HW1 4063   1.273   3.514   3.225 -0.3667 -1.0922  0.6058
 1294SOL    HW2 4064   1.259   3.353   3.246 -3.1801 -1.0152 -0.2297
 1295SOL     OW 4065   0.645   0.066   3.219 -0.0632  0.6023  0.0905
 1295SOL    HW1 4066   0.741   0.037   3.224 -0.4762 -0.9213 -0.2827
 1295SOL    HW2 4067   0.589   0.003   3.272 -1.1511 -0.0502 -1.7303
 1296SOL     OW 4068   0.697   0.059   0.387 -0.1588  0.1007 -0.1591
 1296SOL    HW1 4069   0.738   0.069   0.478 -0.0488  1.4254 -0.3404
 1296SOL    HW2 4070   0.768   0.040   0.320 -0.1379 -0.0137 -0.1051
 1297SOL     OW 4071   2.329   0.375   1.972 -0.1101  0.2550 -0.6890
 1297SOL    HW1 4072   2.308   0.463   1.931 -0.0783  1.5367  1.8394
 1297SOL    HW2 4073   2.285   0.369   2.062  0.1529 -2.1805 -0.6489
 1298SOL     OW 4074   1.980   1.505   3.099  0.2835 -0.3493  0.1373
 1298SOL    HW1 4075   1.938   1.495   3.189 -0.3422 -0.7459 -0.1882
 1298SOL    HW2 4076   2.075   1.534   3.109  1.1382 -3.1659  1.0498
 1299SOL     OW 4077   1.941   1.155   0.726  0.0577 -0.1014  0.1573
 1299SOL    HW1 4078   1.982   1.202   0.648  0.0742  1.4873  1.0940
 1299SOL    HW2 4079   1.858   1.203   0.753 -1.1617 -1.8931 -0.2071
 1300SOL     OW 4080   2.030   0.737   1.918  0.0654 -0.2781  0.2705
 1300SOL    HW1 4081   2.001   0.771   2.008 -0.5790  2.6344 -0.9101
 1300SOL    HW2 4082   1.952   0.693   1.873  0.1357 -0.9188  0.7662
 1301SOL     OW 4083   1.451   1.920   1.794 -0.1709  0.6682 -0.2351
 1301SOL    HW1 4084   1.510   1.912   1.714 -2.2991 -0.9613 -1.7520
 1301SOL    HW2 4085   1.455   2.014   1.828  1.6008  1.1371 -1.5846
 1302SOL     OW 4086   1.157   1.367   2.721 -0.4908  0.0649 -0.1137
 1302SOL    HW1 4087   1.131   1.270   2.720 -1.9078  0.3216  2.6632
 1302SOL    HW2 4088   1.200   1.388   2.808 -0.7939  2.0918 -0.4195
 1303SOL     OW 4089   1.851   2.064   3.112 -0.8834 -0.3107  0.4768
 1303SOL    HW1 4090   1.834   1.982   3.167  0.0304 -0.2920  0.8076
 1303SOL    HW2 4091   1.928   2.046   3.050 -0.4925  0.3896  0.7567
 1304SOL     OW 4092   0.509   0.975   3.015  0.2890  0.3360  0.7338
 1304SOL    HW1 4093   0.582   0.981   2.948  0.7135  0.0441  1.1694
 1304SOL    HW2 4094   0.437   0.914   2.980  0.2006  0.6993  0.2676
 1305SOL     OW 4095   1.989   2.840   0.110  0.3029 -0.0964 -0.4316
 1305SOL    HW1 4096   1.904   2.891   0.124 -0.0060 -0.7438  0.0901
 1305SOL    HW2 4097   2.004   2.826   0.012  0.7200  1.5281 -0.6433
 1306SOL     OW 4098   2.414   1.280   1.501 -0.4567  0.1637 -0.6452
 1306SOL    HW1 4099   2.360   1.201   1.530  0.8943 -0.5393  0.0797
 1306SOL    HW2 4100   2.488   1.249   1.442  0.5268  0.7775  0.2442
 1307SOL     OW 4101   1.592   2.477   0.025 -0.1114 -0.3204 -0.2992
 1307SOL    HW1 4102   1.617   2.396  -0.029 -1.0976 -0.5209 -0.4657
 1307SOL    HW2 4103   1.563   2.550  -0.036  0.5791  0.1002 -0.1346
 1308SOL     OW 4104   0.005   1.675   3.465  0.6291 -0.3009 -0.4934
 1308SOL    HW1 4105   0.024   1.581   3.495  1.6795 -0.4800 -1.6068
 1308SOL    HW2 4106  -0.093   1.687   3.456  0.4254 -1.0004  0.5530
 1309SOL     OW 4107   1.100   3.322   0.358 -0.0509  0.4553 -0.0203
 1309SOL    HW1 4108   1.090   3.417   0.387 -0.4948  0.6025 -0.6543
 1309SOL    HW2 4109   1.174   3.315   0.291 -0.1610  0.3810 -0.1330
 1310SOL     OW 4110   0.877   0.633   2.720  0.0337  0.6111 -0.7443
 1310SOL    HW1 4111   0.839   0.643   2.812 -1.2783  1.3549 -1.3428
 1310SOL    HW2 4112   0.976   0.632   2.726 -0.0278  0.0585  0.7333
 1311SOL     OW 4113   1.124   0.656   3.155 -0.0912 -0.4712  0.0301
 1311SOL    HW1 4114   1.176   0.669   3.240 -1.4715 -0.0641  0.8302
 1311SOL    HW2 4115   1.061   0.732   3.143 -1.3874 -1.5570 -0.2782
 1312SOL     OW 4116   0.351   1.039   2.070  0.1780 -0.6223 -0.5335
 1312SOL    HW1 4117   0.327   1.128   2.030  2.2595 -0.1455 -0.8660
 1312SOL    HW2 4118   0.268   0.987   2.088 -1.0400  0.9892 -1.2675
 1313SOL     OW 4119   2.965   3.256   2.961  0.0862 -0.4859 -0.1018
 1313SOL    HW1 4120   2.998   3.193   3.031 -1.5860 -2.3399 -0.9032
 1313SOL    HW2 4121   2.923   3.335   3.006  2.1524  0.0982  0.9179
 1314SOL     OW 4122   3.533   0.888   0.352 -0.5641 -0.2831 -0.0548
 1314SOL    HW1 4123   3.469   0.829   0.302 -1.3022 -0.3250  0.9070
 1314SOL    HW2 4124   3.484   0.932   0.428  0.5872 -0.4696  0.8231
 1315SOL     OW 4125   0.228   1.226   2.442  0.6102  0.4111 -0.1029
 1315SOL    HW1 4126   0.251   1.133   2.413 -0.2445 -0.3307  1.4622
 1315SOL    HW2 4127   0.296   1.258   2.508 -0.4072 -0.1019  1.2402
 1316SOL     OW 4128   3.001   1.568   2.388 -0.6135  0.1614  0.0490
 1316SOL    HW1 4129   2.959   1.602   2.473 -2.7161  0.2512 -0.9578
 1316SOL    HW2 4130   3.044   1.479   2.406  1.7666  1.5685  1.8776
 1317SOL     OW 4131   1.655   3.431   1.674 -0.1254  0.1694  0.5551
 1317SOL    HW1 4132   1.728   3.433   1.742 -0.2440 -0.9002  0.7335
 1317SOL    HW2 4133   1.695   3.443   1.583 -0.1708  3.8152  0.8697
 1318SOL     OW 4134   2.813   2.169   2.706  0.0339  0.1749  0.2208
 1318SOL    HW1 4135   2.777   2.076   2.713 -2.3657  1.0952  1.5242
 1318SOL    HW2 4136   2.899   2.168   2.655 -0.1438 -2.6680 -0.1721
 1319SOL     OW 4137   0.954   1.817   2.322  0.4516 -0.1376 -0.6345
 1319SOL    HW1 4138   0.949   1.854   2.415  1.0699 -1.8391  0.1187
 1319SOL    HW2 4139   0.862   1.805   2.286  0.1453 -0.7197  0.3067
 1320SOL     OW 4140   0.499   1.902   3.073 -0.1771 -0.1188 -0.0153
 1320SOL    HW1 4141   0.475   1.997   3.056 -1.3770 -0.3040  0.4872
 1320SOL    HW2 4142   0.545   1.894   3.161 -0.5192 -0.0596  0.1704
 1321SOL     OW 4143   1.228   3.388   2.441 -0.0230 -0.5425 -0.4236
 1321SOL    HW1 4144   1.218   3.289   2.450 -0.5483 -0.3922  0.9010
 1321SOL    HW2 4145   1.240   3.412   2.344 -0.1178 -1.8705 -0.7738
 1322SOL     OW 4146   1.179   3.108   2.095 -0.0257 -0.1453  0.4707
 1322SOL    HW1 4147   1.246   3.042   2.060  1.5155  0.3352  2.3263
 1322SOL    HW2 4148   1.192   3.195   2.048 -0.7246 -0.6021 -0.5883
 1323SOL     OW 4149   0.834   0.677   1.800 -0.0691  0.2127  0.1386
 1323SOL    HW1 4150   0.858   0.774   1.791 -0.9806  0.2999 -1.6602
 1323SOL    HW2 4151   0.853   0.630   1.714 -0.1316 -1.1180  0.8296
 1324SOL     OW 4152   0.146   1.838   0.110  0.7386  0.4401  0.5750
 1324SOL    HW1 4153   0.166   1.924   0.062 -1.0960  0.2980 -0.5653
 1324SOL    HW2 4154   0.201   1.765   0.071  0.9803  0.7706  0.2908
 1325SOL     OW 4155   1.179   0.549   2.795  0.6193 -0.0765 -0.2581
 1325SOL    HW1 4156   1.241   0.560   2.873 -0.2060  0.3389  0.3467
 1325SOL    HW2 4157   1.165   0.451   2.778  1.5833 -0.1751 -0.5223
 1326SOL     OW 4158   2.166   0.077   0.622 -0.8479 -0.0369  0.5053
 1326SOL    HW1 4159   2.185   0.143   0.694  0.8046 -1.9592  1.9687
 1326SOL    HW2 4160   2.193  -0.014   0.654  3.0371 -0.6862 -3.5454
 1327SOL     OW 4161   1.110   2.914   3.553  0.1757 -0.2003  0.2955
 1327SOL    HW1 4162   1.048   2.971   3.500  0.2443  0.2039  0.6460
 1327SOL    HW2 4163   1.204   2.933   3.526  0.2691  0.6167  1.1290
 1328SOL     OW 4164   1.195   0.136   2.990 -0.9407 -0.1721 -0.4190
 1328SOL    HW1 4165   1.143   0.187   3.059  0.7337  1.0694 -0.0263
 1328SOL    HW2 4166   1.163   0.162   2.899 -1.9531 -0.5108 -0.1820
 1329SOL     OW 4167   1.947   0.690   0.555 -0.1581  0.6089 -0.4075
 1329SOL    HW1 4168   1.931   0.714   0.459  0.2157  1.9159 -0.1662
 1329SOL    HW2 4169   2.041   0.713   0.579 -0.3077  0.4765  0.3350
 1330SOL     OW 4170   2.047   2.902   2.519  0.0090  0.4777 -0.1303
 1330SOL    HW1 4171   2.123   2.952   2.478 -0.1330  0.3931 -0.5019
 1330SOL    HW2 4172   2.072   2.805   2.525  0.1437  0.5318  0.2601
 1331SOL     OW 4173   1.636   1.189   2.315  0.5698  0.5766 -0.3939
 1331SOL    HW1 4174   1.603   1.227   2.401 -0.2215 -1.0052  0.0435
 1331SOL    HW2 4175   1.601   1.243   2.239  1.4665  2.1318  0.2564
 1332SOL     OW 4176   2.952   1.802   3.013  0.1854 -0.3216  0.0485
 1332SOL    HW1 4177   2.979   1.855   3.093 -2.8330 -0.5270  1.3560
 1332SOL    HW2 4178   2.908   1.717   3.043 -2.0410  0.1056 -1.7438
 1333SOL     OW 4179   0.051   1.488   2.031  0.0053 -0.3044  0.1962
 1333SOL    HW1 4180   0.012   1.580   2.026  0.2271 -0.2365 -0.3294
 1333SOL    HW2 4181   0.056   1.460   2.127 -0.3293  0.1158  0.3392
 1334SOL     OW 4182   3.339   2.456   2.038 -0.4716  0.2359  0.0625
 1334SOL    HW1 4183   3.275   2.457   2.116  0.2200  1.7444  0.6385
 1334SOL    HW2 4184   3.309   2.523   1.971 -0.5351 -0.4030 -0.5572
 1335SOL     OW 4185   0.713   3.184   3.504  0.1321 -0.1627  0.0778
 1335SOL    HW1 4186   0.719   3.188   3.604  0.2112  0.0439  0.0659
 1335SOL    HW2 4187   0.790   3.130   3.469  0.2318 -0.0445  0.1141
 1336SOL     OW 4188   2.579   1.504   1.580 -0.2479 -0.0371 -0.5592
 1336SOL    HW1 4189   2.636   1.559   1.642  0.6718 -0.0247 -1.3811
 1336SOL    HW2 4190   2.530   1.436   1.633  0.6231 -0.1155  0.1779
 1337SOL     OW 4191   1.747   1.283   0.822 -0.0260 -0.4574  0.6703
 1337SOL    HW1 4192   1.769   1.352   0.891  0.2594 -0.9256  1.0580
 1337SOL    HW2 4193   1.651   1.255   0.832  0.8094 -2.9789  3.1723
 1338SOL     OW 4194   1.350   1.492   0.100  0.0310 -0.1475 -0.2527
 1338SOL    HW1 4195   1.405   1.575   0.106 -0.2037  0.0548 -0.8077
 1338SOL    HW2 4196   1.370   1.433   0.178 -0.4347  0.8145  0.6005
 1339SOL     OW 4197   1.321   2.195   0.595 -0.4757 -1.0274  0.1210
 1339SOL    HW1 4198   1.402   2.154   0.553  0.1725 -0.0567  0.3761
 1339SOL    HW2 4199   1.239   2.162   0.550  0.0671 -2.0366 -0.1412
 1340SOL     OW 4200   1.068   1.268   1.991  0.3991 -0.1888  0.2812
 1340SOL    HW1 4201   1.053   1.270   1.892  1.2175 -0.0620  0.1453
 1340SOL    HW2 4202   0.994   1.218   2.036 -0.9025  1.2273 -0.2127
 1341SOL     OW 4203   2.434   1.224   3.394 -0.1128 -0.2686  0.1091
 1341SOL    HW1 4204   2.417   1.301   3.332 -0.2255 -0.9844 -0.7671
 1341SOL    HW2 4205   2.346   1.184   3.421 -0.0937  0.4322  1.2498
 1342SOL     OW 4206   0.054   1.377   2.830  0.0595 -0.4386 -0.1278
 1342SOL    HW1 4207  -0.038   1.358   2.794 -0.0844 -1.6664  0.8326
 1342SOL    HW2 4208   0.081   1.303   2.891  0.1474  1.6681  2.5714
 1343SOL     OW 4209   0.158   3.428   1.719 -0.4235 -0.2316  0.5804
 1343SOL    HW1 4210   0.201   3.361   1.657 -2.6271  0.4781 -1.9249
 1343SOL    HW2 4211   0.167   3.396   1.813  0.3554 -3.0370 -0.3376
 1344SOL     OW 4212   3.385   3.399   2.323 -0.3589  0.7298 -0.0340
 1344SOL    HW1 4213   3.413   3.482   2.276  1.1261 -0.2372 -0.9304
 1344SOL    HW2 4214   3.302   3.363   2.278  0.1121  0.6907 -0.9021
 1345SOL     OW 4215   1.465   0.142   1.263  0.1041  0.2172 -0.7250
 1345SOL    HW1 4216   1.395   0.206   1.294 -0.2741 -0.7210  0.4483
 1345SOL    HW2 4217   1.528   0.123   1.339 -0.6686 -1.9209 -0.5250
 1346SOL     OW 4218   1.764   1.843   0.048 -0.0198 -0.3201 -0.2200
 1346SOL    HW1 4219   1.820   1.781  -0.006  1.3156 -0.2357  1.0187
 1346SOL    HW2 4220   1.795   1.842   0.143 -2.0446 -0.1523  0.4898
 1347SOL     OW 4221   0.780   2.556   0.765 -0.4887 -0.1061  0.2180
 1347SOL    HW1 4222   0.737   2.580   0.852 -0.3451  1.1653 -0.0356
 1347SOL    HW2 4223   0.712   2.557   0.692 -0.6900 -1.5788  0.3628
 1348SOL     OW 4224   2.351   1.237   1.136  0.0564  0.8252  0.1499
 1348SOL    HW1 4225   2.269   1.208   1.087  1.4263 -0.3072 -1.6275
 1348SOL    HW2 4226   2.409   1.289   1.073  1.5734 -0.0622  0.7650
 1349SOL     OW 4227   0.607   0.705   2.679  0.5693 -0.5195  0.2839
 1349SOL    HW1 4228   0.576   0.685   2.771 -0.1750 -2.0974 -0.2768
 1349SOL    HW2 4229   0.703   0.680   2.669 -0.1761 -3.4935 -0.2289
 1350SOL     OW 4230   2.164   3.404   2.819  0.1155 -0.2808 -0.5750
 1350SOL    HW1 4231   2.209   3.481   2.773 -0.1094 -0.0774 -0.4603
 1350SOL    HW2 4232   2.065   3.421   2.821  0.1676 -0.0457  0.4228
 1351SOL     OW 4233   3.271   2.957   1.361 -0.5475  0.8815 -0.0301
 1351SOL    HW1 4234   3.352   2.918   1.406 -1.2630 -0.7478 -0.0809
 1351SOL    HW2 4235   3.261   3.053   1.389  0.3092  0.5618  1.4950
 1352SOL     OW 4236   3.075   1.379   1.574  0.2998 -1.1157  0.2492
 1352SOL    HW1 4237   3.017   1.459   1.571  0.6791 -0.8595 -1.0869
 1352SOL    HW2 4238   3.163   1.401   1.531  0.7848 -1.9494  0.7906
 1353SOL     OW 4239   2.436   2.635   2.489  0.8508 -0.7393 -0.0921
 1353SOL    HW1 4240   2.483   2.548   2.505  0.7479 -0.9334 -0.8217
 1353SOL    HW2 4241   2.486   2.709   2.535 -0.5636 -1.5174  2.9880
 1354SOL     OW 4242   0.936   2.766   0.644 -0.0504  0.1260 -0.1091
 1354SOL    HW1 4243   0.898   2.680   0.680 -1.9715  0.1733 -1.8118
 1354SOL    HW2 4244   0.868   2.839   0.657  0.7128  0.9281 -0.5491
 1355SOL     OW 4245   0.585   3.207   1.415  0.4435 -0.3741 -0.6166
 1355SOL    HW1 4246   0.498   3.163   1.392  0.5118 -0.2897 -1.0348
 1355SOL    HW2 4247   0.630   3.154   1.488 -0.3221  0.0238  0.1542
 1356SOL     OW 4248   1.268   3.156   0.175 -0.1098  0.0547 -0.1465
 1356SOL    HW1 4249   1.256   3.113   0.264 -0.3953 -0.6691 -0.5283
 1356SOL    HW2 4250   1.355   3.127   0.135  0.0603  0.4483 -0.0717
 1357SOL     OW 4251   3.431   2.684   2.464 -0.1291  0.0432 -0.1074
 1357SOL    HW1 4252   3.406   2.587   2.468  0.9903 -0.2982 -0.8755
 1357SOL    HW2 4253   3.378   2.734   2.531  0.4676 -1.3695  1.4868
 1358SOL     OW 4254   0.656   0.527   3.230  0.3068  0.2573  0.0066
 1358SOL    HW1 4255   0.645   0.524   3.329  0.6979 -0.5633  0.0336
 1358SOL    HW2 4256   0.754   0.531   3.208  0.4590 -3.0205 -0.3796
 1359SOL     OW 4257   0.363   2.945   0.599 -0.4405  0.3105  0.0882
 1359SOL    HW1 4258   0.364   3.045   0.595 -3.3527  0.4005 -0.4536
 1359SOL    HW2 4259   0.328   2.916   0.688  2.6395 -0.3800  1.2018
 1360SOL     OW 4260   2.200   2.130   3.061  0.3744 -0.0943  0.0839
 1360SOL    HW1 4261   2.123   2.091   3.011  0.0149  1.6847 -0.8080
 1360SOL    HW2 4262   2.286   2.092   3.025  0.1071  0.9162 -1.7013
 1361SOL     OW 4263   3.324   0.879   3.263 -0.3650  0.3127  0.1905
 1361SOL    HW1 4264   3.398   0.873   3.330 -0.6763  1.0770  0.6085
 1361SOL    HW2 4265   3.339   0.958   3.204 -2.3835  2.3778  2.2234
 1362SOL     OW 4266   0.213   2.703   0.584  0.2429  0.1754  0.2889
 1362SOL    HW1 4267   0.244   2.710   0.489  0.9862  0.3516  0.5447
 1362SOL    HW2 4268   0.246   2.781   0.636  0.3401 -0.2271  0.8395
 1363SOL     OW 4269   1.446   2.162   1.932 -0.1214 -0.2679  0.3511
 1363SOL    HW1 4270   1.466   2.253   1.897  0.1276  0.7097  2.8515
 1363SOL    HW2 4271   1.372   2.168   1.999 -0.0076 -1.9017  0.6624
 1364SOL     OW 4272   3.041   1.678   1.028 -0.0314  0.0611 -0.1026
 1364SOL    HW1 4273   3.043   1.606   0.959 -0.9535  0.2178 -0.3142
 1364SOL    HW2 4274   3.128   1.680   1.077 -0.0486 -1.2915  0.0103
 1365SOL     OW 4275   0.134   3.442   2.728  0.1532 -0.6785  0.3912
 1365SOL    HW1 4276   0.183   3.478   2.807 -1.1115  0.5663  0.6477
 1365SOL    HW2 4277   0.042   3.481   2.725 -0.7114 -2.6249 -0.2989
 1366SOL     OW 4278   2.577   1.568   1.322  0.5347 -0.0280  0.1095
 1366SOL    HW1 4279   2.491   1.545   1.278  1.5834 -1.6994 -1.2317
 1366SOL    HW2 4280   2.575   1.536   1.417 -0.9416  1.5937  0.6635
 1367SOL     OW 4281   1.131   2.919   3.199  0.5179 -0.0076  0.1258
 1367SOL    HW1 4282   1.212   2.976   3.187 -0.7598  1.7535 -0.7893
 1367SOL    HW2 4283   1.077   2.954   3.276  0.0875 -0.4714  0.0418
 1368SOL     OW 4284   1.314   1.921   3.331 -0.0593 -0.0150 -0.4616
 1368SOL    HW1 4285   1.224   1.964   3.331 -0.4078 -0.6644  1.2998
 1368SOL    HW2 4286   1.363   1.948   3.248 -1.3525  1.4164 -0.8106
 1369SOL     OW 4287   1.304   1.495   2.036 -0.0625  0.7909 -0.3738
 1369SOL    HW1 4288   1.380   1.492   1.971  0.8512 -0.4146  0.6971
 1369SOL    HW2 4289   1.250   1.412   2.028  0.8061  0.0343  1.2293
 1370SOL     OW 4290   2.487   0.091   1.576 -0.2652  0.3782  0.5886
 1370SOL    HW1 4291   2.530   0.141   1.501 -2.3094 -2.5911 -2.8933
 1370SOL    HW2 4292   2.541   0.009   1.597 -1.2000 -0.3839  0.1513
 1371SOL     OW 4293   0.360   3.056   3.397 -0.0799 -0.2277 -0.1846
 1371SOL    HW1 4294   0.277   3.004   3.381 -0.6599  0.1803  1.2941
 1371SOL    HW2 4295   0.344   3.122   3.471  1.6673 -0.4174  0.4158
 1372SOL     OW 4296   3.337   1.462   2.550 -0.0092  0.1300  0.2028
 1372SOL    HW1 4297   3.257   1.417   2.510  0.2974 -0.9577  0.7708
 1372SOL    HW2 4298   3.362   1.416   2.635  1.9163 -0.2935 -0.5377
 1373SOL     OW 4299   1.954   2.399   1.052 -0.2766  0.2515  0.0051
 1373SOL    HW1 4300   1.901   2.400   0.967  0.7236 -0.5934 -0.6459
 1373SOL    HW2 4301   2.044   2.439   1.035  0.3326 -0.9074  0.3774
 1374SOL     OW 4302   2.257   3.433   0.704 -0.1737 -0.5913  0.0768
 1374SOL    HW1 4303   2.175   3.376   0.700 -0.8326  0.3647 -0.3725
 1374SOL    HW2 4304   2.311   3.418   0.621  0.3247 -1.5048  0.5437
 1375SOL     OW 4305   2.146   2.348   3.239 -0.2331 -0.1199  0.1877
 1375SOL    HW1 4306   2.238   2.387   3.233  1.0678 -2.5302  2.5188
 1375SOL    HW2 4307   2.143   2.261   3.190 -1.1903 -0.2132  0.3845
 1376SOL     OW 4308   2.904   0.725   0.542  0.8055  0.0237  0.2739
 1376SOL    HW1 4309   2.921   0.821   0.566 -0.9537  0.0633  1.5899
 1376SOL    HW2 4310   2.970   0.696   0.473  1.6386  2.0523  0.1473
 1377SOL     OW 4311   2.122   3.184   3.408 -0.0943  0.5461  0.3317
 1377SOL    HW1 4312   2.149   3.094   3.373 -0.4686  0.7827 -0.5973
 1377SOL    HW2 4313   2.132   3.252   3.335  0.0371  1.2345  0.9828
 1378SOL     OW 4314   2.663   0.957   1.134  0.3174  0.4936 -0.0638
 1378SOL    HW1 4315   2.724   0.915   1.201  0.2737 -0.7943 -0.7886
 1378SOL    HW2 4316   2.719   1.000   1.062  0.3615  1.0504  0.2982
 1379SOL     OW 4317   1.957   1.775   1.092  0.1488 -0.6151  0.2016
 1379SOL    HW1 4318   2.011   1.804   1.013 -0.6189  0.6703  0.1223
 1379SOL    HW2 4319   1.862   1.803   1.080 -0.2882 -1.6898  0.9370
 1380SOL     OW 4320   3.360   3.364   3.549 -0.0527  0.0763 -0.6216
 1380SOL    HW1 4321   3.415   3.446   3.532  0.6595  0.0188  1.2574
 1380SOL    HW2 4322   3.392   3.290   3.490 -0.6823  1.0886 -2.3275
 1381SOL     OW 4323   0.800   1.620   0.267  0.2044 -0.5557 -0.0697
 1381SOL    HW1 4324   0.742   1.600   0.346  0.8128 -0.4984  0.3969
 1381SOL    HW2 4325   0.892   1.643   0.299  0.7003 -1.4136 -0.8342
 1382SOL     OW 4326   2.345   1.824   2.560  0.2105  0.2233 -0.5891
 1382SOL    HW1 4327   2.416   1.894   2.562  0.5443 -0.0306 -2.0645
 1382SOL    HW2 4328   2.265   1.859   2.511  0.4026 -0.4202 -1.3966
 1383SOL     OW 4329   2.737   2.472   0.942  0.0225  0.3247 -0.2736
 1383SOL    HW1 4330   2.788   2.427   0.869  0.4355 -1.1164  0.8472
 1383SOL    HW2 4331   2.799   2.493   1.017 -0.2684  2.3889 -0.5540
 1384SOL     OW 4332   0.188   2.067   1.032  0.2334  0.2313  0.5599
 1384SOL    HW1 4333   0.234   1.993   0.983  0.4213  0.6639  0.0741
 1384SOL    HW2 4334   0.089   2.055   1.025  0.2612 -0.1145  0.7074
 1385SOL     OW 4335   2.888   2.032   0.818 -0.6836 -0.2564 -0.1077
 1385SOL    HW1 4336   2.975   1.981   0.816 -0.7188 -0.3034 -1.7077
 1385SOL    HW2 4337   2.827   1.994   0.749 -1.7504  0.2205  0.5528
 1386SOL     OW 4338   0.986   0.650   0.670  0.2177 -0.4879  0.4927
 1386SOL    HW1 4339   0.913   0.582   0.677 -0.5922  0.3747  0.8523
 1386SOL    HW2 4340   0.952   0.728   0.616  1.3772 -0.6821 -0.5489
 1387SOL     OW 4341   2.596   0.947   0.051 -0.0293  0.0751 -0.3119
 1387SOL    HW1 4342   2.669   0.881   0.030 -1.3020 -0.9606 -1.7522
 1387SOL    HW2 4343   2.517   0.927  -0.007 -1.0102  1.9624  0.3073
 1388SOL     OW 4344   2.776   2.945   1.834 -0.0661 -0.5197  0.1024
 1388SOL    HW1 4345   2.782   2.867   1.896  0.3982  0.1624  0.9308
 1388SOL    HW2 4346   2.865   2.960   1.791 -0.4064 -1.0447 -0.8245
 1389SOL     OW 4347   2.639   1.096   2.225  0.2326 -0.9585  0.4900
 1389SOL    HW1 4348   2.604   1.019   2.173 -0.3145 -0.3513 -0.0598
 1389SOL    HW2 4349   2.670   1.167   2.163  0.9793 -0.8348  0.9894
 1390SOL     OW 4350   0.932   0.901   1.285  0.4526 -0.2210  0.2337
 1390SOL    HW1 4351   0.963   0.938   1.198  0.7562  0.4593  0.6233
 1390SOL    HW2 4352   0.855   0.955   1.319  0.7271 -0.1018  0.6782
 1391SOL     OW 4353   0.861   1.555   1.022  0.0074 -0.5509 -0.4597
 1391SOL    HW1 4354   0.887   1.459   1.030 -1.9480 -1.0860 -0.2019
 1391SOL    HW2 4355   0.842   1.591   1.113 -0.8002 -0.3676 -0.6992
 1392SOL     OW 4356   2.861   0.584   1.606  0.3959  0.1378  0.4220
 1392SOL    HW1 4357   2.830   0.594   1.700  1.4384  0.0069  0.7965
 1392SOL    HW2 4358   2.784   0.600   1.544  0.2149  2.7877  1.1987
 1393SOL     OW 4359   1.093   1.528   3.209  0.3466 -0.6021  0.0351
 1393SOL    HW1 4360   1.111   1.561   3.301 -0.3067  0.0841 -0.0742
 1393SOL    HW2 4361   1.131   1.436   3.199 -0.2536 -0.9961  1.2304
 1394SOL     OW 4362   0.336   2.446   1.666 -0.5663 -0.0363  0.6047
 1394SOL    HW1 4363   0.272   2.384   1.620  0.6319 -0.3744 -0.6804
 1394SOL    HW2 4364   0.404   2.477   1.600  1.0313 -0.2491  2.0922
 1395SOL     OW 4365   1.856   1.344   0.253 -0.1101  0.0778 -0.1791
 1395SOL    HW1 4366   1.792   1.400   0.200  1.1862  1.5270 -0.2749
 1395SOL    HW2 4367   1.914   1.292   0.191  0.3550  0.5651 -0.1596
 1396SOL     OW 4368   0.687   2.494   2.570  0.3902  0.1212  0.4484
 1396SOL    HW1 4369   0.665   2.585   2.606 -4.2507 -1.2985  1.8687
 1396SOL    HW2 4370   0.719   2.437   2.646 -0.4526 -0.4104  0.4143
 1397SOL     OW 4371   1.032   0.252   3.197  0.1127 -0.4496 -0.2126
 1397SOL    HW1 4372   0.981   0.328   3.157  0.5116 -0.2881 -0.4104
 1397SOL    HW2 4373   1.032   0.261   3.297 -0.5782 -0.6621 -0.1853
 1398SOL     OW 4374   1.518   0.903   2.937 -0.2648  0.3798  0.1061
 1398SOL    HW1 4375   1.501   0.972   2.867 -0.5420 -1.8958 -2.2031
 1398SOL    HW2 4376   1.612   0.870   2.929 -1.5305 -3.2449 -2.6030
 1399SOL     OW 4377   2.964   0.108   0.879 -0.6099 -0.6054 -0.1683
 1399SOL    HW1 4378   3.052   0.155   0.889 -0.8133 -0.2942  0.1812
 1399SOL    HW2 4379   2.891   0.168   0.912 -1.0873 -0.3916 -1.5551
 1400SOL     OW 4380   1.451   2.715   2.262 -0.5502  0.1947 -0.7834
 1400SOL    HW1 4381   1.544   2.748   2.245 -0.0314 -1.3568 -1.0666
 1400SOL    HW2 4382   1.426   2.735   2.357 -0.4690  1.8177 -1.0700
 1401SOL     OW 4383   0.409   2.927   2.154 -0.0360 -0.1805 -0.3367
 1401SOL    HW1 4384   0.386   3.007   2.210 -0.2488 -0.8250  0.5231
 1401SOL    HW2 4385   0.375   2.844   2.199  1.4274 -0.9006 -0.4715
 1402SOL     OW 4386   1.775   1.538   2.950  0.0665  0.4328 -0.1162
 1402SOL    HW1 4387   1.715   1.459   2.941 -1.0222  0.9706  1.7523
 1402SOL    HW2 4388   1.846   1.518   3.018 -0.5666  1.1944  0.8135
 1403SOL     OW 4389   2.180   1.596   2.633  0.1735 -0.1906 -0.2570
 1403SOL    HW1 4390   2.161   1.613   2.730  1.5549 -0.6251  0.1137
 1403SOL    HW2 4391   2.232   1.673   2.596 -0.1127 -0.1553 -0.5885
 1404SOL     OW 4392   3.077   1.927   0.579 -0.2171 -0.7539  0.4146
 1404SOL    HW1 4393   3.086   2.021   0.548  1.1598 -1.3376 -1.1145
 1404SOL    HW2 4394   3.024   1.875   0.512  0.6220 -1.4767  0.2949
 1405SOL     OW 4395   2.394   0.434   1.529  0.6750 -0.4222  0.2213
 1405SOL    HW1 4396   2.332   0.400   1.600  0.4929  2.3184  1.5333
 1405SOL    HW2 4397   2.361   0.404   1.440 -2.3513  0.4825  0.8914
 1406SOL     OW 4398   0.952   3.161   0.512  0.8361  0.2726  0.1412
 1406SOL    HW1 4399   0.923   3.217   0.589  0.8719  0.7869 -0.2125
 1406SOL    HW2 4400   1.012   3.214   0.452  2.2668 -0.6783  0.6833
 1407SOL     OW 4401   2.403   0.737   2.819  0.2401  0.0215  0.0151
 1407SOL    HW1 4402   2.447   0.794   2.749 -0.2285  0.6415  0.2146
 1407SOL    HW2 4403   2.304   0.751   2.816  0.3568  2.0816  2.4944
 1408SOL     OW 4404   1.628   0.074   0.274  0.1733  0.4386 -0.3050
 1408SOL    HW1 4405   1.551   0.108   0.328 -1.2898 -0.2995 -1.8710
 1408SOL    HW2 4406   1.620  -0.025   0.265  1.6665  0.2665  0.0029
 1409SOL     OW 4407   1.017   0.302   3.473  0.2848  0.3642  0.1376
 1409SOL    HW1 4408   0.936   0.361   3.474 -1.6214 -2.0734 -0.0069
 1409SOL    HW2 4409   1.019   0.248   3.557  2.5926  1.3020  0.7659
 1410SOL     OW 4410   1.915   2.109   0.910  0.8269  0.0986  0.2735
 1410SOL    HW1 4411   1.907   2.072   0.817  1.2755  2.6698 -0.8797
 1410SOL    HW2 4412   2.007   2.145   0.923  0.3409  1.0734  1.1719
 1411SOL     OW 4413   1.464   3.420   0.295  0.0899  0.3575  1.0562
 1411SOL    HW1 4414   1.386   3.441   0.235  1.9741 -0.8572 -2.0637
 1411SOL    HW2 4415   1.441   3.342   0.353 -1.2430  0.4609  0.7014
 1412SOL     OW 4416   0.010   1.980   0.299  0.1420 -0.0694 -0.1047
 1412SOL    HW1 4417   0.047   1.912   0.236 -0.5030 -0.3579 -0.1828
 1412SOL    HW2 4418   0.011   2.070   0.256 -0.0006 -0.2106 -0.4033
 1413SOL     OW 4419   0.066   0.125   1.954  0.0554  0.2252 -0.0285
 1413SOL    HW1 4420   0.065   0.181   2.037  0.1352  0.5495 -0.2457
 1413SOL    HW2 4421   0.019   0.038   1.972 -1.2359  0.8916 -0.0535
 1414SOL     OW 4422   0.729   2.746   2.150  0.1379  0.3183 -0.1044
 1414SOL    HW1 4423   0.827   2.750   2.132  0.2334 -0.6832  0.1001
 1414SOL    HW2 4424   0.683   2.822   2.104  1.0326  0.9295 -0.0115
 1415SOL     OW 4425   0.907   2.879   3.035 -0.4972  0.0843 -0.2091
 1415SOL    HW1 4426   0.850   2.959   3.018  0.2177  0.2672 -1.9192
 1415SOL    HW2 4427   0.992   2.908   3.079 -1.4723 -0.1480  2.0039
 1416SOL     OW 4428   0.964   0.396   0.165 -0.3067 -0.5018 -0.7012
 1416SOL    HW1 4429   0.958   0.429   0.071 -0.4962  1.0449 -0.1728
 1416SOL    HW2 4430   0.877   0.413   0.211 -0.1310 -1.0238 -0.1620
 1417SOL     OW 4431   0.309   3.569   0.541  0.4286 -0.1243  0.0094
 1417SOL    HW1 4432   0.237   3.500   0.548  1.5063 -1.6134 -2.3872
 1417SOL    HW2 4433   0.394   3.525   0.513  1.6364  1.9545  0.2096
 1418SOL     OW 4434   0.737   1.022   2.858  0.2409 -0.2669 -0.1691
 1418SOL    HW1 4435   0.737   1.006   2.759 -0.1761 -1.0275 -0.0561
 1418SOL    HW2 4436   0.780   1.110   2.877 -1.4291  0.8288 -1.1915
 1419SOL     OW 4437   0.178   1.211   0.054 -0.1619 -0.1871 -0.4934
 1419SOL    HW1 4438   0.257   1.151   0.061 -1.4494 -2.1281 -1.5826
 1419SOL    HW2 4439   0.120   1.199   0.134  2.2521  3.9541  2.2154
 1420SOL     OW 4440   1.720   3.275   3.577  0.3758 -0.2800  0.2407
 1420SOL    HW1 4441   1.652   3.349   3.576  0.0543 -0.5470 -1.8633
 1420SOL    HW2 4442   1.731   3.239   3.485  2.1016 -1.4591  0.8527
 1421SOL     OW 4443   0.926   1.663   1.399  0.0434 -0.4538  0.3869
 1421SOL    HW1 4444   0.944   1.723   1.477  0.5969 -0.7609  0.5035
 1421SOL    HW2 4445   1.002   1.598   1.390 -0.1263 -0.5628 -0.2742
 1422SOL     OW 4446   3.231   1.077   3.101 -0.1825 -0.3690 -0.0886
 1422SOL    HW1 4447   3.132   1.068   3.098 -0.1713 -0.3136 -0.9577
 1422SOL    HW2 4448   3.256   1.173   3.108 -0.1863 -0.3904  0.2496
 1423SOL     OW 4449   1.661   1.536   0.596 -0.0113  0.6830 -0.0635
 1423SOL    HW1 4450   1.614   1.615   0.634  0.8422  1.0561  0.2512
 1423SOL    HW2 4451   1.754   1.531   0.634  0.0820 -0.2444 -0.3773
 1424SOL     OW 4452   1.908   2.184   0.186 -0.4470  0.3185 -0.7570
 1424SOL    HW1 4453   1.939   2.277   0.164 -0.9701  1.2374  1.9554
 1424SOL    HW2 4454   1.815   2.188   0.221 -0.4777 -1.2556 -0.5859
 1425SOL     OW 4455   3.050   2.782   2.114  0.1814 -0.9120  1.0228
 1425SOL    HW1 4456   2.977   2.738   2.166 -1.4893 -0.2440 -0.6298
 1425SOL    HW2 4457   3.103   2.712   2.066  0.4379 -1.3801  1.9610
 1426SOL     OW 4458   3.274   0.462   1.074 -0.0157 -0.1953 -0.2089
 1426SOL    HW1 4459   3.298   0.481   1.169 -0.0079  1.3259 -0.4834
 1426SOL    HW2 4460   3.250   0.548   1.028 -3.2281 -1.2437 -0.7240
 1427SOL     OW 4461   2.378   2.480   3.169 -0.0062 -0.1634 -0.5565
 1427SOL    HW1 4462   2.459   2.444   3.123 -0.0675 -2.3977  0.9288
 1427SOL    HW2 4463   2.399   2.569   3.208  1.1984  0.0383 -1.5980
 1428SOL     OW 4464   2.978   2.949   3.581 -0.3904 -0.1684  0.3083
 1428SOL    HW1 4465   3.009   2.970   3.674  1.5262  1.6476 -0.6906
 1428SOL    HW2 4466   3.003   3.023   3.520 -4.7284  0.4018 -1.1169
 1429SOL     OW 4467   1.434   1.342   0.292 -0.6022  0.1622  0.2295
 1429SOL    HW1 4468   1.513   1.316   0.346 -0.8168  0.3581  0.6401
 1429SOL    HW2 4469   1.379   1.261   0.273 -1.1632  0.2792  1.3345
 1430SOL     OW 4470   0.820   2.021   3.075 -0.1169 -0.6828 -0.0710
 1430SOL    HW1 4471   0.828   2.070   3.162 -0.1706  0.7706 -0.8396
 1430SOL    HW2 4472   0.873   1.936   3.080  1.1920  0.1380  0.8555
 1431SOL     OW 4473   2.123   3.503   1.027 -0.2936 -0.5653 -0.1172
 1431SOL    HW1 4474   2.072   3.485   0.943 -0.3921  1.6336 -0.5763
 1431SOL    HW2 4475   2.205   3.555   1.005 -0.4596  0.2857  1.1501
 1432SOL     OW 4476   3.071   1.097   1.503 -0.0320 -0.1916 -0.1383
 1432SOL    HW1 4477   3.003   1.171   1.500 -0.7670 -0.8230  0.4785
 1432SOL    HW2 4478   3.091   1.076   1.599 -1.2631 -2.0560 -0.2417
 1433SOL     OW 4479   2.867   3.513   1.930  0.1582  0.5368 -0.1277
 1433SOL    HW1 4480   2.797   3.565   1.979  0.2897 -0.3419  1.0273
 1433SOL    HW2 4481   2.863   3.417   1.958  1.5478  0.3902 -0.3691
 1434SOL     OW 4482   1.878   2.958   3.441  0.4946  0.9035  0.7888
 1434SOL    HW1 4483   1.891   3.057   3.435  2.2981  0.6595 -0.0632
 1434SOL    HW2 4484   1.923   2.914   3.363  0.4070 -0.6433  1.5639
 1435SOL     OW 4485   2.650   0.261   1.431  0.2591 -0.0825  0.1435
 1435SOL    HW1 4486   2.615   0.345   1.472  0.5043 -0.4354  1.0909
 1435SOL    HW2 4487   2.750   0.260   1.436  0.2599 -0.4292  0.1255
 1436SOL     OW 4488   3.485   0.014   0.796 -0.1159  0.5279 -0.5662
 1436SOL    HW1 4489   3.409  -0.010   0.856 -1.0884  0.9010 -1.6101
 1436SOL    HW2 4490   3.450   0.065   0.717  1.3726  1.9026 -0.4121
 1437SOL     OW 4491   1.136   0.402   0.639 -0.6985 -0.1878  0.2022
 1437SOL    HW1 4492   1.148   0.410   0.540  0.4534  1.2180  0.4086
 1437SOL    HW2 4493   1.057   0.457   0.667 -0.3694  0.3150  0.1668
 1438SOL     OW 4494   2.394   2.109   1.438 -0.1012 -0.1310 -0.4236
 1438SOL    HW1 4495   2.472   2.170   1.449 -0.2069 -0.3033  1.7385
 1438SOL    HW2 4496   2.343   2.135   1.356  0.0875  2.4497  0.1766
 1439SOL     OW 4497   1.463   0.489   1.448 -0.3227  0.0543  0.7561
 1439SOL    HW1 4498   1.531   0.542   1.397 -1.4212  1.2810  0.5088
 1439SOL    HW2 4499   1.386   0.468   1.388 -1.2106  0.7074  1.6434
 1440SOL     OW 4500   0.920   1.365   0.126 -0.0461 -1.1210 -0.0323
 1440SOL    HW1 4501   0.889   1.330   0.214  0.3481 -2.1837 -0.2969
 1440SOL    HW2 4502   0.986   1.439   0.141 -0.4638 -0.8638  0.5525
 1441SOL     OW 4503   0.769   2.616   1.463  0.0880 -0.3154 -0.0501
 1441SOL    HW1 4504   0.771   2.665   1.376 -0.3697  2.0084  1.1838
 1441SOL    HW2 4505   0.839   2.653   1.524 -0.5041 -0.9735  1.0631
 1442SOL     OW 4506   0.648   0.116   1.535  0.0904 -0.2694  0.0495
 1442SOL    HW1 4507   0.630   0.018   1.523 -0.0903 -0.0623 -1.6735
 1442SOL    HW2 4508   0.667   0.134   1.631 -0.1021 -1.9563  0.4453
 1443SOL     OW 4509   0.404   0.067   2.419  0.3140 -0.0953  0.3849
 1443SOL    HW1 4510   0.459   0.130   2.364 -0.8347  1.4828  0.9867
 1443SOL    HW2 4511   0.340   0.018   2.359  0.0668  0.5460  0.1187
 1444SOL     OW 4512   2.122   1.762   0.052 -0.1069  0.0289 -0.0510
 1444SOL    HW1 4513   2.131   1.732   0.147  0.5321  0.4159  0.0145
 1444SOL    HW2 4514   2.116   1.862   0.049  2.7247  0.2521 -0.5852
 1445SOL     OW 4515   2.449   2.480   1.559 -0.1694 -0.0623  0.8014
 1445SOL    HW1 4516   2.513   2.551   1.587  0.3124 -1.1552  2.6730
 1445SOL    HW2 4517   2.497   2.414   1.500 -0.2513  0.4117  0.1954
 1446SOL     OW 4518   0.342   1.876   0.900  0.4086 -0.3830  0.1062
 1446SOL    HW1 4519   0.400   1.885   0.980  1.3019  0.2852 -0.6037
 1446SOL    HW2 4520   0.392   1.826   0.829 -0.9131 -2.3334  0.4760
 1447SOL     OW 4521   2.406   2.582   1.183 -0.2977 -0.1662 -0.5715
 1447SOL    HW1 4522   2.494   2.606   1.225  0.4380 -0.2334 -1.9810
 1447SOL    HW2 4523   2.336   2.577   1.253  0.7900  0.0783  0.5739
 1448SOL     OW 4524   2.939   0.162   2.490 -0.7137  0.6283 -0.0837
 1448SOL    HW1 4525   3.022   0.191   2.443  1.6186 -0.5536  2.9701
 1448SOL    HW2 4526   2.890   0.243   2.523  0.7567  1.3370  0.4459
 1449SOL     OW 4527   1.783   1.870   3.286  0.0521  0.4074 -0.4205
 1449SOL    HW1 4528   1.746   1.940   3.346 -0.6537  1.5671 -2.1272
 1449SOL    HW2 4529   1.838   1.806   3.340  1.4308  2.7210  1.1146
 1450SOL     OW 4530   1.219   2.622   2.151 -0.2188 -0.4975 -0.2907
 1450SOL    HW1 4531   1.233   2.570   2.067  0.1658 -1.2974  0.2607
 1450SOL    HW2 4532   1.307   2.657   2.183 -0.1284 -1.4957  0.5982
 1451SOL     OW 4533   2.086   0.432   1.429 -0.0209 -0.1253  0.4128
 1451SOL    HW1 4534   2.054   0.345   1.392 -0.1833 -0.2897  0.9323
 1451SOL    HW2 4535   2.164   0.464   1.375 -1.7179  0.8496 -1.5713
 1452SOL     OW 4536   0.121   1.207   3.377 -0.1479  0.5911  0.1159
 1452SOL    HW1 4537   0.150   1.221   3.472  0.9270 -0.4312 -0.0438
 1452SOL    HW2 4538   0.143   1.288   3.323  0.1785  0.7715  0.5193
 1453SOL     OW 4539   1.568   2.786   2.612  0.3425  0.3503  0.0229
 1453SOL    HW1 4540   1.523   2.697   2.618  0.2744  0.3086 -0.8867
 1453SOL    HW2 4541   1.509   2.849   2.561  0.0381  1.1622  1.3207
 1454SOL     OW 4542   1.196   1.169   3.296 -0.0769  0.0453 -0.6879
 1454SOL    HW1 4543   1.151   1.177   3.385 -0.4833 -2.6670 -0.5752
 1454SOL    HW2 4544   1.129   1.183   3.224 -0.0899  0.6367 -0.5648
 1455SOL     OW 4545   3.290   1.178   3.435 -0.4752  0.1651 -0.2021
 1455SOL    HW1 4546   3.313   1.264   3.480  3.7107 -0.0366 -1.4887
 1455SOL    HW2 4547   3.306   1.102   3.498  2.6332  0.0569 -0.9608
 1456SOL     OW 4548   2.374   1.983   1.977  0.0461 -0.2466  0.1825
 1456SOL    HW1 4549   2.296   2.045   1.993  1.0379  1.3376 -0.8498
 1456SOL    HW2 4550   2.424   1.973   2.063  0.4563  1.2684  0.1611
 1457SOL     OW 4551   2.185   0.903   1.270 -0.3898 -0.6923 -0.3401
 1457SOL    HW1 4552   2.203   0.846   1.190 -2.1410 -2.9647  0.7563
 1457SOL    HW2 4553   2.196   0.999   1.245  1.3672 -1.3896 -2.6500
 1458SOL     OW 4554   1.497   0.566   2.319  0.5870  0.5509 -0.0183
 1458SOL    HW1 4555   1.496   0.539   2.223 -1.5098  1.8130 -0.4313
 1458SOL    HW2 4556   1.406   0.553   2.358  1.0682  1.2645  1.4399
 1459SOL     OW 4557   1.612   1.713   2.261 -0.4459  0.2446 -0.4455
 1459SOL    HW1 4558   1.582   1.617   2.259  0.3433 -0.0726  1.0634
 1459SOL    HW2 4559   1.563   1.765   2.191 -0.3535 -1.4103 -1.8112
 1460SOL     OW 4560   1.634   1.342   1.893  1.0403  0.1739 -0.0970
 1460SOL    HW1 4561   1.622   1.253   1.849  2.8076  1.2714 -3.0959
 1460SOL    HW2 4562   1.715   1.339   1.952 -1.0858 -1.1717  3.0451
 1461SOL     OW 4563   1.101   1.539   0.231 -0.2958  0.2019  0.2846
 1461SOL    HW1 4564   1.112   1.563   0.328 -1.1018  2.4661 -0.1086
 1461SOL    HW2 4565   1.190   1.514   0.193  0.4999  1.6270  1.0819
 1462SOL     OW 4566   1.649   1.770   2.773  0.2159 -0.1296  0.2623
 1462SOL    HW1 4567   1.649   1.671   2.785  0.1929 -0.3134 -1.1195
 1462SOL    HW2 4568   1.631   1.814   2.861  2.6006 -1.2799  1.4189
 1463SOL     OW 4569   0.954   3.583   1.050  0.3454  0.3170 -0.0508
 1463SOL    HW1 4570   0.983   3.650   1.119  2.0885  0.4561 -0.8663
 1463SOL    HW2 4571   1.027   3.517   1.036 -0.6623 -0.7183 -0.5528
 1464SOL     OW 4572   2.666   0.658   2.924  0.0675  0.0091 -0.1919
 1464SOL    HW1 4573   2.570   0.668   2.898 -0.1925 -0.3291  0.6154
 1464SOL    HW2 4574   2.721   0.639   2.842 -0.2340  2.2630 -0.9773
 1465SOL     OW 4575   0.257   2.424   1.945 -0.9125 -0.1519  0.7880
 1465SOL    HW1 4576   0.293   2.426   1.852  1.0210  1.4048  1.5024
 1465SOL    HW2 4577   0.160   2.403   1.942 -0.7214 -0.9729 -1.5046
 1466SOL     OW 4578   3.119   2.778   1.203 -0.1595 -0.5061 -0.5808
 1466SOL    HW1 4579   3.045   2.814   1.147 -1.0364 -0.5804  0.5029
 1466SOL    HW2 4580   3.162   2.853   1.253 -1.1490 -0.7563  0.6920
 1467SOL     OW 4581   2.730   0.565   3.379 -0.3448 -0.1990  0.0981
 1467SOL    HW1 4582   2.768   0.631   3.313 -1.1136  1.1741  0.9718
 1467SOL    HW2 4583   2.780   0.479   3.372 -0.7730 -0.3138 -2.6725
 1468SOL     OW 4584   1.099   0.292   2.153  0.1462  0.0820  0.1495
 1468SOL    HW1 4585   1.009   0.333   2.168  0.3697  0.9410 -0.7544
 1468SOL    HW2 4586   1.089   0.193   2.144 -0.8713  0.2813 -1.1211
 1469SOL     OW 4587   3.494   2.447   1.162 -0.3040  0.3019 -0.2296
 1469SOL    HW1 4588   3.583   2.486   1.189 -0.7125  2.1313 -1.3181
 1469SOL    HW2 4589   3.509   2.378   1.092  0.2483  0.8122 -0.6259
 1470SOL     OW 4590   1.655   1.796   3.036  0.2801 -0.1491 -0.1259
 1470SOL    HW1 4591   1.689   1.827   3.125  0.8057  1.3667 -0.8156
 1470SOL    HW2 4592   1.708   1.718   3.005  0.1449 -0.6378  0.8393
 1471SOL     OW 4593   1.006   2.412   0.345 -0.1087 -0.4477 -0.2229
 1471SOL    HW1 4594   1.070   2.441   0.416 -0.1485 -0.6151 -0.1161
 1471SOL    HW2 4595   1.042   2.437   0.255  0.3985 -1.0720 -0.2012
 1472SOL     OW 4596   2.227   3.557   0.183  0.5107  0.0096 -0.2125
 1472SOL    HW1 4597   2.163   3.548   0.107 -0.8841 -0.9493  1.0130
 1472SOL    HW2 4598   2.209   3.643   0.231 -1.5313 -1.2801  1.5111
 1473SOL     OW 4599   0.829   0.439   1.089 -0.0262  0.5163  0.3215
 1473SOL    HW1 4600   0.820   0.526   1.137  0.6629  0.3840  0.7137
 1473SOL    HW2 4601   0.740   0.395   1.082 -0.4863  1.5419 -0.4369
 1474SOL     OW 4602   3.097   2.190   0.461  0.4149  0.1928 -0.0691
 1474SOL    HW1 4603   3.113   2.169   0.364 -0.2031  0.4622 -0.2345
 1474SOL    HW2 4604   3.031   2.265   0.468 -1.8560 -1.7277  0.5606
 1475SOL     OW 4605   2.584   0.222   0.351 -0.3185 -0.1084 -0.0917
 1475SOL    HW1 4606   2.508   0.159   0.333  0.0574 -1.0188  1.3552
 1475SOL    HW2 4607   2.659   0.201   0.288  0.3111 -2.0579  1.2265
 1476SOL     OW 4608   0.717   2.875   0.130  0.7770  0.8176 -0.1564
 1476SOL    HW1 4609   0.727   2.777   0.114 -1.5142  0.5195 -0.1546
 1476SOL    HW2 4610   0.800   2.910   0.173  2.2815 -0.7707 -1.5747
 1477SOL     OW 4611   3.168   2.491   2.241 -0.3087  0.1388 -0.4037
 1477SOL    HW1 4612   3.136   2.528   2.328  0.6357  1.0162 -0.4159
 1477SOL    HW2 4613   3.110   2.413   2.215 -2.1877  1.4162 -0.2524
 1478SOL     OW 4614   0.770   0.956   3.329  0.5107 -0.3883  0.6023
 1478SOL    HW1 4615   0.795   1.046   3.363 -0.9945  0.0223  0.6988
 1478SOL    HW2 4616   0.670   0.950   3.320  0.6282 -1.7589 -0.1948
 1479SOL     OW 4617   2.221   0.096   1.690 -0.4838 -0.1198 -0.2512
 1479SOL    HW1 4618   2.309   0.063   1.656 -0.9776 -0.0912 -1.6364
 1479SOL    HW2 4619   2.224   0.195   1.697 -0.3365 -0.1354 -0.0903
 1480SOL     OW 4620   3.171   0.698   2.437  0.3769 -0.2830  0.2982
 1480SOL    HW1 4621   3.100   0.632   2.462 -1.7327  1.8656  0.4279
 1480SOL    HW2 4622   3.233   0.657   2.371 -1.1937 -2.1686 -0.1019
 1481SOL     OW 4623   2.850   1.373   1.178 -0.5211  0.0810 -0.0295
 1481SOL    HW1 4624   2.785   1.446   1.156 -0.1312  0.6276  0.5772
 1481SOL    HW2 4625   2.849   1.358   1.277  0.3695  0.1853  0.0026
 1482SOL     OW 4626   0.192   0.811   2.098 -0.0933  0.4228  0.1202
 1482SOL    HW1 4627   0.184   0.789   2.001 -1.2426  1.0473  0.0477
 1482SOL    HW2 4628   0.268   0.760   2.137  0.4203  0.1915 -1.1132
 1483SOL     OW 4629   1.364   2.359   1.232 -0.1652 -0.4368  0.5121
 1483SOL    HW1 4630   1.427   2.283   1.223  0.1018 -0.1241 -0.3188
 1483SOL    HW2 4631   1.377   2.403   1.321  0.2091 -0.8770  0.6749
 1484SOL     OW 4632   1.119   3.228   1.105 -0.2140  0.4694  0.4625
 1484SOL    HW1 4633   1.157   3.310   1.062 -1.5904  1.3170  0.7893
 1484SOL    HW2 4634   1.080   3.169   1.035  2.6670 -1.0117 -0.0211
 1485SOL     OW 4635   0.134   2.877   3.477  0.4738 -0.6707 -0.3398
 1485SOL    HW1 4636   0.169   2.812   3.544 -1.2240 -0.7933  0.4786
 1485SOL    HW2 4637   0.049   2.843   3.439  0.0498  0.6168 -0.6056
 1486SOL     OW 4638   3.045   3.082   0.479  0.4092 -0.3136  0.0550
 1486SOL    HW1 4639   2.951   3.102   0.507 -0.1777 -1.2798 -1.1172
 1486SOL    HW2 4640   3.106   3.092   0.557 -0.8753 -1.1071  1.1944
 1487SOL     OW 4641   3.088   0.829   0.796 -0.6143  0.4219  0.0999
 1487SOL    HW1 4642   3.104   0.851   0.893 -2.9788 -0.7978  0.8258
 1487SOL    HW2 4643   3.057   0.911   0.749 -4.0231  0.1078  1.5313
 1488SOL     OW 4644   0.504   0.763   3.593 -0.4677 -0.3195  0.4148
 1488SOL    HW1 4645   0.434   0.780   3.523  1.4390 -1.9534 -2.0754
 1488SOL    HW2 4646   0.545   0.850   3.620 -1.2858  0.3642 -0.4556
 1489SOL     OW 4647   2.563   3.586   2.589  0.9341 -0.2013 -0.2205
 1489SOL    HW1 4648   2.645   3.606   2.642  2.6249 -5.1756 -0.4253
 1489SOL    HW2 4649   2.578   3.613   2.494  2.8181 -1.7366 -0.4309
 1490SOL     OW 4650   3.530   2.365   2.723  0.2766 -0.2095 -0.0768
 1490SOL    HW1 4651   3.504   2.270   2.738 -1.4663 -0.0006 -1.3762
 1490SOL    HW2 4652   3.469   2.405   2.654  1.4060  1.6559 -0.0710
 1491SOL     OW 4653   0.513   0.971   3.279 -0.0217  0.5267  0.5410
 1491SOL    HW1 4654   0.525   0.978   3.180 -1.4172  0.6362  0.3482
 1491SOL    HW2 4655   0.496   1.062   3.317 -0.2102  0.3987  0.7687
 1492SOL     OW 4656   2.769   3.490   1.076 -0.1169 -0.1448  0.4504
 1492SOL    HW1 4657   2.686   3.538   1.050 -0.5301 -1.1278 -0.1246
 1492SOL    HW2 4658   2.745   3.397   1.106  0.7494 -0.3924  0.4020
 1493SOL     OW 4659   1.527   3.076   1.922  0.2751  0.3569 -0.3766
 1493SOL    HW1 4660   1.588   3.130   1.980  0.0818 -0.3812  0.5390
 1493SOL    HW2 4661   1.466   3.022   1.980 -1.5588  1.4056 -1.2472
 1494SOL     OW 4662   1.167   1.917   0.253 -0.4954 -0.3245 -0.8156
 1494SOL    HW1 4663   1.146   2.013   0.271 -0.3316 -0.4556  0.1277
 1494SOL    HW2 4664   1.105   1.859   0.307  0.4642 -0.7260 -0.1047
 1495SOL     OW 4665   3.307   2.819   3.127 -0.6474  0.4788 -0.0788
 1495SOL    HW1 4666   3.276   2.834   3.034 -0.1023  2.2001 -0.0165
 1495SOL    HW2 4667   3.403   2.843   3.134 -0.2677 -1.1020  0.6048
 1496SOL     OW 4668   2.638   2.661   1.630  0.0122  0.3044 -0.4218
 1496SOL    HW1 4669   2.642   2.711   1.717 -0.1908  0.1681 -0.3337
 1496SOL    HW2 4670   2.714   2.596   1.626  0.2146  0.5461 -0.4899
 1497SOL     OW 4671   2.540   1.150   1.932  0.3548 -0.5694  0.4944
 1497SOL    HW1 4672   2.615   1.188   1.986  1.7394 -1.0737 -0.9975
 1497SOL    HW2 4673   2.510   1.064   1.973  2.2363 -1.5859 -0.1798
 1498SOL     OW 4674   2.851   0.071   3.491  0.4057  0.9694  0.1232
 1498SOL    HW1 4675   2.813   0.002   3.431  0.2851  1.3727 -0.2703
 1498SOL    HW2 4676   2.940   0.041   3.524 -0.0686  0.1916  0.7385
 1499SOL     OW 4677   2.905   0.752   2.269  0.2025  0.3396  0.3977
 1499SOL    HW1 4678   2.995   0.717   2.294  0.0158 -1.1029 -0.7882
 1499SOL    HW2 4679   2.905   0.852   2.278  1.8314  0.3430  0.6744
 1500SOL     OW 4680   3.529   3.141   0.328 -0.1490 -0.0717 -0.3611
 1500SOL    HW1 4681   3.499   3.077   0.399  1.8871  0.2064  0.7948
 1500SOL    HW2 4682   3.605   3.196   0.362 -0.1747  1.2105 -2.2196
 1501SOL     OW 4683   0.067   0.941   3.299  0.0654  0.0514 -0.3936
 1501SOL    HW1 4684   0.006   0.904   3.369  2.3979 -1.1731  1.1375
 1501SOL    HW2 4685   0.095   1.034   3.326  1.3925 -0.6186  0.7035
 1502SOL     OW 4686   0.206   0.812   0.264  0.1093 -0.1805  0.6579
 1502SOL    HW1 4687   0.239   0.757   0.341 -0.9794  0.7316  1.8133
 1502SOL    HW2 4688   0.115   0.847   0.285 -0.3568 -0.1727 -1.1997
 1503SOL     OW 4689   0.674   2.809   2.896 -0.2405  0.5317 -0.6983
 1503SOL    HW1 4690   0.766   2.799   2.936 -0.6126 -0.2608 -0.0047
 1503SOL    HW2 4691   0.616   2.861   2.959 -0.5730  0.0721 -0.6184
 1504SOL     OW 4692   2.176   2.180   0.867  0.6427  0.0533  0.1029
 1504SOL    HW1 4693   2.245   2.216   0.930 -1.3120  2.3853  1.0618
 1504SOL    HW2 4694   2.136   2.256   0.814  0.0526 -1.4561 -1.7466
 1505SOL     OW 4695   1.803   2.071   1.168 -0.1240 -0.1423  0.1349
 1505SOL    HW1 4696   1.851   2.067   1.255 -0.2970 -1.1961  0.1989
 1505SOL    HW2 4697   1.869   2.082   1.094  0.2131 -1.2913  0.2467
 1506SOL     OW 4698   0.568   1.555   0.096 -0.6724 -0.3113 -0.2602
 1506SOL    HW1 4699   0.651   1.608   0.110 -1.4187  1.4927 -2.2700
 1506SOL    HW2 4700   0.592   1.458   0.084  1.0639  0.0955 -0.2697
 1507SOL     OW 4701   3.371   2.116   2.995  0.0276  0.1716  0.3770
 1507SOL    HW1 4702   3.358   2.181   3.070  0.3087  0.9927 -0.2559
 1507SOL    HW2 4703   3.283   2.076   2.970 -0.9017  2.9890 -1.5215
 1508SOL     OW 4704   3.439   1.930   0.695 -0.0866  0.2365  0.0929
 1508SOL    HW1 4705   3.411   1.835   0.680  0.6604  0.0147  0.0541
 1508SOL    HW2 4706   3.358   1.986   0.715 -0.7020 -0.1172 -1.3262
 1509SOL     OW 4707   3.498   3.234   2.797  0.2337 -0.3553 -0.4897
 1509SOL    HW1 4708   3.480   3.231   2.699  0.5886 -0.9150 -0.5384
 1509SOL    HW2 4709   3.584   3.187   2.816  1.1648  1.3868 -0.1396
 1510SOL     OW 4710   2.339   1.480   0.517  0.1784  0.5238 -0.3334
 1510SOL    HW1 4711   2.390   1.530   0.448 -0.9224  2.5798  0.2463
 1510SOL    HW2 4712   2.267   1.427   0.473  0.9615 -0.0831 -0.9148
   3.59703   3.59703   3.59703
