CLS single chain in water/ethanol mixed solvent
 7412
    1CLSA    H1    1   3.568   4.542   0.471
    1CLSA    C1    2   3.504   4.513   0.556
    1CLSA    C2    3   3.407   4.344   0.765
    1CLSA    C3    4   3.594   4.487   0.679
    1CLSA    C4    5   3.423   4.390   0.518
    1CLSA    C5    6   3.327   4.352   0.632
    1CLSA    H2    7   3.394   4.244   0.809
    1CLSA    H3    8   3.436   4.597   0.576
    1CLSA    H4    9   3.490   4.305   0.499
    1CLSA    H5   10   3.255   4.435   0.643
    1CLSA    H6   11   3.694   4.465   0.640
    1CLSA    O1   12   3.352   4.422   0.401
    1CLSA    H7   13   3.281   4.355   0.398
    1CLSA    O2   14   3.253   4.232   0.598
    1CLSA    H8   15   3.215   4.196   0.681
    1CLSA    O3   16   3.548   4.368   0.748
    1CLSA    C6   17   3.610   4.608   0.779
    1CLSA    H9   18   3.666   4.573   0.867
    1CLSA   H10   19   3.670   4.687   0.732
    1CLSA    O4   20   3.484   4.664   0.823
    1CLSA   H11   21   3.427   4.585   0.832
    1CLSA    O5   22   3.360   4.445   0.854
    2CLSB    C7   23   3.332   4.396   0.985
    2CLSB    C8   24   3.379   4.426   1.225
    2CLSB    C9   25   3.412   4.482   1.086
    2CLSB   C10   26   3.178   4.403   1.013
    2CLSB   C11   27   3.225   4.417   1.251
    2CLSB   H12   28   3.518   4.464   1.068
    2CLSB   H13   29   3.425   4.328   1.237
    2CLSB   H14   30   3.146   4.508   1.013
    2CLSB   H15   31   3.189   4.519   1.261
    2CLSB   H16   32   3.365   4.292   0.997
    2CLSB    O6   33   3.156   4.346   1.143
    2CLSB   C12   34   3.093   4.328   0.907
    2CLSB   H17   35   2.990   4.319   0.944
    2CLSB   H18   36   3.089   4.388   0.815
    2CLSB    O7   37   3.145   4.198   0.876
    2CLSB   H19   38   3.110   4.137   0.944
    2CLSB    O8   39   3.437   4.518   1.316
    2CLSB   H20   40   3.441   4.595   1.257
    2CLSB    O9   41   3.381   4.625   1.077
    2CLSB   H21   42   3.418   4.662   0.995
    2CLSB   O10   43   3.206   4.341   1.370
    3CLSA   C13   44   3.081   4.364   1.439
    3CLSA   C14   45   2.907   4.253   1.647
    3CLSA   C15   46   3.113   4.372   1.590
    3CLSA   C16   47   2.987   4.245   1.403
    3CLSA   C17   48   2.864   4.240   1.497
    3CLSA   H22   49   2.962   4.165   1.682
    3CLSA   H23   50   3.035   4.458   1.406
    3CLSA   H24   51   3.045   4.153   1.421
    3CLSA   H25   52   2.800   4.327   1.474
    3CLSA   H26   53   3.172   4.284   1.618
    3CLSA   O11   54   2.939   4.247   1.267
    3CLSA   H27   55   3.013   4.274   1.209
    3CLSA   O12   56   2.792   4.120   1.468
    3CLSA   H28   57   2.792   4.112   1.371
    3CLSA   O13   58   2.986   4.372   1.662
    3CLSA   C18   59   3.194   4.498   1.633
    3CLSA   H29   60   3.131   4.563   1.695
    3CLSA   H30   61   3.280   4.467   1.693
    3CLSA   O14   62   3.239   4.572   1.520
    3CLSA   H31   63   3.332   4.548   1.503
    3CLSA   O15   64   2.789   4.275   1.724
    4CLSB   C19   65   2.799   4.230   1.859
    4CLSB   C20   66   2.875   4.305   2.088
    4CLSB   C21   67   2.887   4.333   1.938
    4CLSB   C22   68   2.653   4.222   1.913
    4CLSB   C23   69   2.728   4.296   2.134
    4CLSB   H32   70   2.992   4.314   1.911
    4CLSB   H33   71   2.925   4.210   2.111
    4CLSB   H34   72   2.602   4.317   1.893
    4CLSB   H35   73   2.684   4.396   2.126
    4CLSB   H36   74   2.845   4.131   1.864
    4CLSB   O16   75   2.656   4.199   2.055
    4CLSB   C24   76   2.574   4.105   1.850
    4CLSB   H37   77   2.468   4.117   1.876
    4CLSB   H38   78   2.582   4.111   1.740
    4CLSB   O17   79   2.622   3.979   1.898
    4CLSB   H39   80   2.578   3.963   1.983
    4CLSB   O18   81   2.940   4.410   2.156
    4CLSB   H40   82   2.923   4.485   2.096
    4CLSB   O19   83   2.851   4.470   1.905
    4CLSB   H41   84   2.860   4.477   1.808
    4CLSB   O20   85   2.726   4.247   2.268
    5CLSA   C25   86   2.603   4.263   2.339
    5CLSA   C26   87   2.458   4.158   2.572
    5CLSA   C27   88   2.643   4.295   2.485
    5CLSA   C28   89   2.521   4.129   2.326
    5CLSA   C29   90   2.409   4.121   2.429
    5CLSA   H42   91   2.523   4.081   2.615
    5CLSA   H43   92   2.543   4.346   2.298
    5CLSA   H44   93   2.593   4.048   2.349
    5CLSA   H45   94   2.332   4.195   2.403
    5CLSA   H46   95   2.716   4.220   2.518
    5CLSA   O21   96   2.463   4.106   2.196
    5CLSA   H47   97   2.526   4.138   2.130
    5CLSA   O22   98   2.351   3.989   2.422
    5CLSA   H48   99   2.341   3.972   2.327
    5CLSA   O23  100   2.525   4.285   2.570
    5CLSA   C30  101   2.706   4.436   2.505
    5CLSA   H49  102   2.641   4.495   2.569
    5CLSA   H50  103   2.803   4.424   2.556
    5CLSA   O24  104   2.726   4.505   2.381
    5CLSA   H51  105   2.818   4.489   2.353
    5CLSA   O25  106   2.342   4.178   2.649
    6CLSB   C31  107   2.353   4.130   2.781
    6CLSB   C32  108   2.417   4.208   3.011
    6CLSB   C33  109   2.432   4.238   2.862
    6CLSB   C34  110   2.208   4.109   2.830
    6CLSB   C35  111   2.268   4.187   3.052
    6CLSB   H52  112   2.538   4.224   2.837
    6CLSB   H53  113   2.475   4.117   3.033
    6CLSB   H54  114   2.151   4.201   2.812
    6CLSB   H55  115   2.216   4.282   3.039
    6CLSB   H56  116   2.406   4.034   2.785
    6CLSB   O26  117   2.211   4.081   2.972
    6CLSB   C36  118   2.135   3.992   2.759
    6CLSB   H57  119   2.028   3.996   2.783
    6CLSB   H58  120   2.145   4.003   2.650
    6CLSB   O27  121   2.188   3.866   2.800
    6CLSB   H59  122   2.167   3.858   2.894
    6CLSB   O28  123   2.474   4.318   3.080
    6CLSB   H60  124   2.459   4.385   3.011
    6CLSB   O29  125   2.391   4.373   2.830
    6CLSB   H61  126   2.383   4.378   2.733
    6CLSB   O30  127   2.265   4.140   3.187
    7CLSA   C37  128   2.139   4.149   3.254
    7CLSA   C38  129   1.992   4.025   3.480
    7CLSA   C39  130   2.173   4.173   3.404
    7CLSA   C40  131   2.067   4.010   3.236
    7CLSA   C41  132   1.952   3.993   3.334
    7CLSA   H62  133   2.060   3.949   3.522
    7CLSA   H63  134   2.077   4.230   3.215
    7CLSA   H64  135   2.142   3.934   3.260
    7CLSA   H65  136   1.872   4.063   3.307
    7CLSA   H66  137   2.248   4.100   3.435
    7CLSA   O31  138   2.013   3.984   3.104
    7CLSA   H67  139   2.071   4.028   3.040
    7CLSA   O32  140   1.905   3.859   3.315
    7CLSA   H68  141   1.892   3.854   3.219
    7CLSA   O33  142   2.054   4.156   3.485
    7CLSA   C42  143   2.232   4.315   3.431
    7CLSA   H69  144   2.166   4.369   3.500
    7CLSA   H70  145   2.329   4.303   3.480
    7CLSA   O34  146   2.247   4.389   3.311
    7CLSA   H71  147   2.343   4.399   3.296
    7CLSA   O35  148   1.873   4.035   3.555
    8CLSB   C43  149   1.883   3.989   3.689
    8CLSB   C44  150   1.964   4.059   3.920
    8CLSB   C45  151   1.978   4.085   3.769
    8CLSB   C46  152   1.739   3.986   3.745
    8CLSB   C47  153   1.817   4.057   3.965
    8CLSB   H72  154   2.082   4.059   3.743
    8CLSB   H73  155   2.012   3.964   3.946
    8CLSB   H74  156   1.691   4.083   3.726
    8CLSB   H75  157   1.778   4.159   3.954
    8CLSB   H76  158   1.925   3.887   3.689
    8CLSB   O36  159   1.741   3.962   3.887
    8CLSB   C48  160   1.654   3.874   3.679
    8CLSB   H77  161   1.550   3.884   3.712
    8CLSB   H78  162   1.655   3.887   3.570
    8CLSB   O37  163   1.703   3.744   3.713
    8CLSB   H79  164   1.692   3.734   3.810
    8CLSB   O38  165   2.031   4.165   3.985
    8CLSB   H80  166   2.031   4.230   3.913
    8CLSB   O39  167   1.952   4.223   3.735
    8CLSB   H81  168   1.969   4.235   3.640
    8CLSB   O40  169   1.812   4.013   4.102
    9CLSA   C49  170   1.691   4.042   4.173
    9CLSA   C50  171   1.536   3.949   4.408
    9CLSA   C51  172   1.732   4.071   4.320
    9CLSA   C52  173   1.598   3.916   4.164
    9CLSA   C53  174   1.483   3.922   4.264
    9CLSA   H82  175   1.596   3.866   4.445
    9CLSA   H83  176   1.639   4.129   4.132
    9CLSA   H84  177   1.660   3.829   4.189
    9CLSA   H85  178   1.419   4.007   4.237
    9CLSA   H86  179   1.800   3.991   4.351
    9CLSA   O41  180   1.540   3.900   4.034
    9CLSA   H87  181   1.611   3.904   3.968
    9CLSA   O42  182   1.406   3.801   4.250
    9CLSA   H88  183   1.411   3.785   4.154
    9CLSA   O43  184   1.614   4.072   4.405
    9CLSA   C54  185   1.808   4.206   4.337
    9CLSA   H89  186   1.750   4.271   4.404
    9CLSA   H90  187   1.904   4.187   4.386
    9CLSA   O44  188   1.829   4.273   4.213
    9CLSA   H91  189   1.918   4.249   4.182
    9CLSA   O45  190   1.424   3.975   4.489
   10CLSB   C55  191   1.447   3.947   4.630
   10CLSB   C56  192   1.367   4.038   4.855
   10CLSB   C57  193   1.395   4.070   4.706
   10CLSB   C58  194   1.371   3.816   4.662
   10CLSB   C59  195   1.300   3.900   4.877
   10CLSB   H92  196   1.473   4.147   4.704
   10CLSB   H93  197   1.462   4.041   4.910
   10CLSB   H94  198   1.268   3.825   4.625
   10CLSB   H95  199   1.195   3.906   4.845
   10CLSB   H96  200   1.554   3.935   4.650
   10CLSB   O46  201   1.369   3.797   4.806
   10CLSB   C60  202   1.431   3.689   4.598
   10CLSB   H97  203   1.368   3.604   4.624
   10CLSB   H98  204   1.430   3.699   4.489
   10CLSB   O47  205   1.563   3.667   4.646
   10CLSB   H99  206   1.567   3.716   4.731
   10CLSB   O48  207   1.279   4.137   4.902
   10CLSB  H100  208   1.245   4.173   4.818
   10CLSB   O49  209   1.276   4.119   4.639
   10CLSB  H101  210   1.290   4.081   4.551
   10CLSB   O50  211   1.306   3.866   5.014
   10CLSB  H102  212   1.342   3.776   5.015
   11SOL     OW  213   4.441   1.146   2.653
   11SOL    HW1  214   4.350   1.149   2.612
   11SOL    HW2  215   4.464   1.236   2.690
   12SOL     OW  216   4.030   1.892   5.460
   12SOL    HW1  217   4.003   1.863   5.552
   12SOL    HW2  218   4.096   1.827   5.423
   13SOL     OW  219   0.190   5.467   5.269
   13SOL    HW1  220   0.252   5.543   5.249
   13SOL    HW2  221   0.237   5.380   5.253
   14SOL     OW  222   1.944   5.336   0.540
   14SOL    HW1  223   1.883   5.386   0.478
   14SOL    HW2  224   2.021   5.300   0.488
   15SOL     OW  225   2.728   5.112   1.701
   15SOL    HW1  226   2.799   5.113   1.631
   15SOL    HW2  227   2.749   5.181   1.770
   16SOL     OW  228   5.467   3.956   4.144
   16SOL    HW1  229   5.537   3.886   4.141
   16SOL    HW2  230   5.483   4.016   4.222
   17SOL     OW  231   3.232   3.004   5.473
   17SOL    HW1  232   3.310   2.973   5.527
   17SOL    HW2  233   3.215   3.101   5.491
   18SOL     OW  234   5.383   5.400   5.034
   18SOL    HW1  235   5.464   5.455   5.015
   18SOL    HW2  236   5.343   5.431   5.120
   19SOL     OW  237   0.709   2.325   2.607
   19SOL    HW1  238   0.790   2.273   2.635
   19SOL    HW2  239   0.728   2.370   2.519
   20SOL     OW  240   1.820   2.643   0.318
   20SOL    HW1  241   1.895   2.576   0.322
   20SOL    HW2  242   1.859   2.733   0.301
   21SOL     OW  243   2.099   4.005   0.839
   21SOL    HW1  244   2.048   3.938   0.784
   21SOL    HW2  245   2.035   4.057   0.896
   22SOL     OW  246   5.116   3.741   2.124
   22SOL    HW1  247   5.051   3.704   2.191
   22SOL    HW2  248   5.079   3.826   2.086
   23SOL     OW  249   1.820   4.032   5.540
   23SOL    HW1  250   1.896   4.069   5.593
   23SOL    HW2  251   1.807   4.088   5.458
   24SOL     OW  252   1.381   1.042   4.374
   24SOL    HW1  253   1.292   1.019   4.412
   24SOL    HW2  254   1.452   0.993   4.425
   25SOL     OW  255   3.785   3.266   0.243
   25SOL    HW1  256   3.841   3.193   0.205
   25SOL    HW2  257   3.824   3.354   0.218
   26SOL     OW  258   3.791   1.476   2.517
   26SOL    HW1  259   3.799   1.381   2.548
   26SOL    HW2  260   3.880   1.509   2.487
   27SOL     OW  261   1.854   1.321   4.249
   27SOL    HW1  262   1.833   1.385   4.323
   27SOL    HW2  263   1.808   1.234   4.268
   28SOL     OW  264   5.326   3.148   2.360
   28SOL    HW1  265   5.402   3.102   2.407
   28SOL    HW2  266   5.290   3.220   2.420
   29SOL     OW  267   5.057   4.971   5.034
   29SOL    HW1  268   5.138   4.921   5.064
   29SOL    HW2  269   5.062   5.065   5.068
   30SOL     OW  270   3.231   2.950   4.350
   30SOL    HW1  271   3.283   3.034   4.365
   30SOL    HW2  272   3.138   2.974   4.321
   31SOL     OW  273   0.502   3.407   3.817
   31SOL    HW1  274   0.599   3.432   3.810
   31SOL    HW2  275   0.447   3.488   3.795
   32SOL     OW  276   3.799   0.728   0.705
   32SOL    HW1  277   3.786   0.636   0.742
   32SOL    HW2  278   3.768   0.795   0.772
   33SOL     OW  279   0.580   0.224   0.968
   33SOL    HW1  280   0.584   0.324   0.977
   33SOL    HW2  281   0.667   0.191   0.931
   34SOL     OW  282   3.708   4.146   2.731
   34SOL    HW1  283   3.651   4.221   2.698
   34SOL    HW2  284   3.659   4.096   2.802
   35SOL     OW  285   0.251   5.116   4.929
   35SOL    HW1  286   0.179   5.160   4.874
   35SOL    HW2  287   0.315   5.186   4.961
   36SOL     OW  288   3.673   2.237   4.837
   36SOL    HW1  289   3.631   2.149   4.856
   36SOL    HW2  290   3.728   2.265   4.916
   37SOL     OW  291   1.372   5.057   1.934
   37SOL    HW1  292   1.364   5.001   1.851
   37SOL    HW2  293   1.378   4.998   2.014
   38SOL     OW  294   2.233   5.290   0.382
   38SOL    HW1  295   2.222   5.389   0.385
   38SOL    HW2  296   2.329   5.267   0.369
   39SOL     OW  297   3.678   0.555   0.167
   39SOL    HW1  298   3.641   0.646   0.186
   39SOL    HW2  299   3.606   0.487   0.176
   40SOL     OW  300   0.209   0.827   2.874
   40SOL    HW1  301   0.277   0.841   2.946
   40SOL    HW2  302   0.165   0.739   2.887
   41SOL     OW  303   1.557   0.500   1.462
   41SOL    HW1  304   1.649   0.465   1.446
   41SOL    HW2  305   1.502   0.428   1.505
   42SOL     OW  306   2.588   3.332   3.391
   42SOL    HW1  307   2.649   3.302   3.464
   42SOL    HW2  308   2.503   3.280   3.396
   43SOL     OW  309   1.762   1.775   4.991
   43SOL    HW1  310   1.761   1.821   5.080
   43SOL    HW2  311   1.856   1.762   4.962
   44SOL     OW  312   0.270   5.346   4.447
   44SOL    HW1  313   0.324   5.346   4.531
   44SOL    HW2  314   0.225   5.257   4.437
   45SOL     OW  315   4.404   0.735   4.498
   45SOL    HW1  316   4.383   0.743   4.595
   45SOL    HW2  317   4.503   0.730   4.486
   46SOL     OW  318   2.301   0.269   0.312
   46SOL    HW1  319   2.237   0.193   0.300
   46SOL    HW2  320   2.250   0.354   0.324
   47SOL     OW  321   3.281   2.822   1.263
   47SOL    HW1  322   3.344   2.897   1.280
   47SOL    HW2  323   3.332   2.743   1.229
   48SOL     OW  324   3.262   3.551   2.285
   48SOL    HW1  325   3.335   3.528   2.220
   48SOL    HW2  326   3.262   3.484   2.359
   49SOL     OW  327   0.245   0.837   5.003
   49SOL    HW1  328   0.255   0.767   5.074
   49SOL    HW2  329   0.176   0.806   4.937
   50SOL     OW  330   3.504   4.704   2.701
   50SOL    HW1  331   3.554   4.776   2.653
   50SOL    HW2  332   3.407   4.708   2.676
   51SOL     OW  333   1.361   5.258   1.585
   51SOL    HW1  334   1.266   5.269   1.615
   51SOL    HW2  335   1.397   5.172   1.622
   52SOL     OW  336   2.582   2.749   0.414
   52SOL    HW1  337   2.577   2.832   0.358
   52SOL    HW2  338   2.515   2.755   0.487
   53SOL     OW  339   1.504   1.484   0.784
   53SOL    HW1  340   1.534   1.574   0.751
   53SOL    HW2  341   1.413   1.465   0.747
   54SOL     OW  342   5.136   1.028   4.228
   54SOL    HW1  343   5.127   0.944   4.282
   54SOL    HW2  344   5.200   1.090   4.275
   55SOL     OW  345   0.372   1.264   4.794
   55SOL    HW1  346   0.301   1.334   4.807
   55SOL    HW2  347   0.378   1.240   4.697
   56SOL     OW  348   1.151   3.115   2.124
   56SOL    HW1  349   1.165   3.192   2.186
   56SOL    HW2  350   1.083   3.142   2.055
   57SOL     OW  351   3.779   0.789   4.029
   57SOL    HW1  352   3.838   0.854   3.982
   57SOL    HW2  353   3.781   0.701   3.982
   58SOL     OW  354   5.117   3.563   2.427
   58SOL    HW1  355   5.018   3.575   2.415
   58SOL    HW2  356   5.158   3.648   2.457
   59SOL     OW  357   3.354   2.586   1.805
   59SOL    HW1  358   3.436   2.633   1.773
   59SOL    HW2  359   3.368   2.487   1.798
   60SOL     OW  360   0.348   4.969   0.555
   60SOL    HW1  361   0.414   4.908   0.599
   60SOL    HW2  362   0.328   4.935   0.464
   61SOL     OW  363   2.397   2.640   0.621
   61SOL    HW1  364   2.371   2.545   0.640
   61SOL    HW2  365   2.404   2.690   0.708
   62SOL     OW  366   5.171   4.381   0.679
   62SOL    HW1  367   5.263   4.394   0.718
   62SOL    HW2  368   5.132   4.296   0.714
   63SOL     OW  369   3.163   4.288   3.423
   63SOL    HW1  370   3.199   4.202   3.459
   63SOL    HW2  371   3.066   4.295   3.444
   64SOL     OW  372   1.963   1.632   2.293
   64SOL    HW1  373   1.910   1.700   2.343
   64SOL    HW2  374   1.981   1.665   2.200
   65SOL     OW  375   4.553   4.497   1.135
   65SOL    HW1  376   4.553   4.413   1.081
   65SOL    HW2  377   4.465   4.544   1.122
   66SOL     OW  378   4.654   3.306   2.824
   66SOL    HW1  379   4.606   3.218   2.829
   66SOL    HW2  380   4.586   3.379   2.812
   67SOL     OW  381   3.666   0.714   1.781
   67SOL    HW1  382   3.662   0.616   1.798
   67SOL    HW2  383   3.747   0.735   1.726
   68SOL     OW  384   5.596   0.329   3.224
   68SOL    HW1  385   5.648   0.333   3.139
   68SOL    HW2  386   5.649   0.370   3.298
   69SOL     OW  387   4.182   2.461   0.369
   69SOL    HW1  388   4.212   2.543   0.318
   69SOL    HW2  389   4.211   2.380   0.319
   70SOL     OW  390   4.714   1.315   2.303
   70SOL    HW1  391   4.628   1.293   2.256
   70SOL    HW2  392   4.788   1.265   2.260
   71SOL     OW  393   4.623   3.848   4.807
   71SOL    HW1  394   4.549   3.900   4.765
   71SOL    HW2  395   4.673   3.798   4.736
   72SOL     OW  396   2.922   5.480   5.565
   72SOL    HW1  397   2.850   5.459   5.631
   72SOL    HW2  398   2.937   5.579   5.563
   73SOL     OW  399   3.107   4.970   5.476
   73SOL    HW1  400   3.123   4.896   5.411
   73SOL    HW2  401   3.112   4.935   5.569
   74SOL     OW  402   5.132   5.113   3.178
   74SOL    HW1  403   5.226   5.147   3.173
   74SOL    HW2  404   5.107   5.071   3.091
   75SOL     OW  405   4.201   2.876   1.401
   75SOL    HW1  406   4.198   2.913   1.308
   75SOL    HW2  407   4.110   2.840   1.425
   76SOL     OW  408   0.234   5.113   2.985
   76SOL    HW1  409   0.150   5.124   2.931
   76SOL    HW2  410   0.272   5.022   2.969
   77SOL     OW  411   0.825   5.438   0.489
   77SOL    HW1  412   0.849   5.533   0.508
   77SOL    HW2  413   0.836   5.384   0.572
   78SOL     OW  414   0.968   0.274   1.237
   78SOL    HW1  415   1.044   0.339   1.233
   78SOL    HW2  416   1.001   0.186   1.270
   79SOL     OW  417   4.764   1.463   1.458
   79SOL    HW1  418   4.846   1.519   1.468
   79SOL    HW2  419   4.702   1.507   1.393
   80SOL     OW  420   2.240   1.843   2.587
   80SOL    HW1  421   2.284   1.926   2.553
   80SOL    HW2  422   2.194   1.796   2.511
   81SOL     OW  423   4.415   2.121   0.884
   81SOL    HW1  424   4.482   2.196   0.882
   81SOL    HW2  425   4.404   2.085   0.791
   82SOL     OW  426   3.476   5.112   1.585
   82SOL    HW1  427   3.551   5.067   1.634
   82SOL    HW2  428   3.395   5.114   1.643
   83SOL     OW  429   1.842   0.205   1.117
   83SOL    HW1  430   1.872   0.272   1.185
   83SOL    HW2  431   1.918   0.143   1.097
   84SOL     OW  432   1.504   4.069   5.257
   84SOL    HW1  433   1.494   4.117   5.344
   84SOL    HW2  434   1.419   4.076   5.206
   85SOL     OW  435   4.465   4.187   0.229
   85SOL    HW1  436   4.564   4.173   0.226
   85SOL    HW2  437   4.419   4.102   0.203
   86SOL     OW  438   3.474   5.266   0.261
   86SOL    HW1  439   3.429   5.344   0.306
   86SOL    HW2  440   3.507   5.203   0.331
   87SOL     OW  441   0.591   4.862   4.232
   87SOL    HW1  442   0.631   4.843   4.322
   87SOL    HW2  443   0.541   4.948   4.236
   88SOL     OW  444   4.334   1.518   1.894
   88SOL    HW1  445   4.243   1.483   1.916
   88SOL    HW2  446   4.341   1.614   1.923
   89SOL     OW  447   5.069   2.037   1.362
   89SOL    HW1  448   5.102   2.111   1.420
   89SOL    HW2  449   5.133   2.024   1.286
   90SOL     OW  450   4.940   3.494   4.681
   90SOL    HW1  451   4.871   3.429   4.649
   90SOL    HW2  452   4.960   3.476   4.777
   91SOL     OW  453   0.680   4.900   0.976
   91SOL    HW1  454   0.754   4.873   1.037
   91SOL    HW2  455   0.708   4.980   0.923
   92SOL     OW  456   4.492   0.701   3.131
   92SOL    HW1  457   4.554   0.756   3.075
   92SOL    HW2  458   4.539   0.618   3.159
   93SOL     OW  459   2.741   3.777   2.868
   93SOL    HW1  460   2.773   3.693   2.911
   93SOL    HW2  461   2.662   3.812   2.918
   94SOL     OW  462   2.421   2.336   5.558
   94SOL    HW1  463   2.340   2.340   5.617
   94SOL    HW2  464   2.488   2.403   5.590
   95SOL     OW  465   1.218   4.437   2.778
   95SOL    HW1  466   1.208   4.344   2.742
   95SOL    HW2  467   1.149   4.451   2.849
   96SOL     OW  468   4.707   4.020   3.204
   96SOL    HW1  469   4.632   4.070   3.160
   96SOL    HW2  470   4.674   3.932   3.236
   97SOL     OW  471   2.924   4.796   4.606
   97SOL    HW1  472   2.824   4.791   4.616
   97SOL    HW2  473   2.954   4.728   4.540
   98SOL     OW  474   3.857   2.917   0.677
   98SOL    HW1  475   3.901   3.007   0.680
   98SOL    HW2  476   3.919   2.849   0.717
   99SOL     OW  477   2.980   1.453   3.180
   99SOL    HW1  478   3.067   1.456   3.130
   99SOL    HW2  479   2.917   1.393   3.131
  100SOL     OW  480   0.234   3.578   3.192
  100SOL    HW1  481   0.153   3.551   3.246
  100SOL    HW2  482   0.229   3.535   3.102
  101SOL     OW  483   1.956   0.247   1.593
  101SOL    HW1  484   2.025   0.236   1.522
  101SOL    HW2  485   1.933   0.157   1.631
  102SOL     OW  486   1.058   2.748   3.181
  102SOL    HW1  487   1.130   2.762   3.249
  102SOL    HW2  488   1.017   2.658   3.196
  103SOL     OW  489   0.932   2.312   3.345
  103SOL    HW1  490   0.983   2.259   3.413
  103SOL    HW2  491   0.993   2.336   3.269
  104SOL     OW  492   3.884   2.990   2.000
  104SOL    HW1  493   3.828   2.907   2.000
  104SOL    HW2  494   3.979   2.966   2.018
  105SOL     OW  495   0.758   5.578   4.541
  105SOL    HW1  496   0.786   5.504   4.602
  105SOL    HW2  497   0.839   5.618   4.498
  106SOL     OW  498   3.743   5.208   3.042
  106SOL    HW1  499   3.692   5.123   3.050
  106SOL    HW2  500   3.679   5.285   3.042
  107SOL     OW  501   0.391   4.996   4.630
  107SOL    HW1  502   0.476   4.951   4.603
  107SOL    HW2  503   0.343   4.939   4.696
  108SOL     OW  504   1.763   1.446   4.493
  108SOL    HW1  505   1.835   1.473   4.556
  108SOL    HW2  506   1.717   1.364   4.527
  109SOL     OW  507   3.436   5.456   0.867
  109SOL    HW1  508   3.344   5.494   0.870
  109SOL    HW2  509   3.434   5.368   0.818
  110SOL     OW  510   2.084   2.366   0.970
  110SOL    HW1  511   2.075   2.421   1.053
  110SOL    HW2  512   2.030   2.282   0.980
  111SOL     OW  513   0.248   2.110   0.405
  111SOL    HW1  514   0.275   2.205   0.392
  111SOL    HW2  515   0.311   2.066   0.469
  112SOL     OW  516   1.123   1.586   2.590
  112SOL    HW1  517   1.212   1.542   2.580
  112SOL    HW2  518   1.101   1.595   2.687
  113SOL     OW  519   4.315   0.445   4.327
  113SOL    HW1  520   4.329   0.451   4.425
  113SOL    HW2  521   4.363   0.365   4.291
  114SOL     OW  522   3.657   1.120   3.189
  114SOL    HW1  523   3.626   1.079   3.275
  114SOL    HW2  524   3.594   1.194   3.164
  115SOL     OW  525   4.227   4.310   3.217
  115SOL    HW1  526   4.324   4.305   3.194
  115SOL    HW2  527   4.183   4.224   3.194
  116SOL     OW  528   4.801   1.330   1.713
  116SOL    HW1  529   4.784   1.356   1.618
  116SOL    HW2  530   4.863   1.396   1.755
  117SOL     OW  531   4.309   3.981   4.451
  117SOL    HW1  532   4.254   4.030   4.384
  117SOL    HW2  533   4.341   4.045   4.521
  118SOL     OW  534   3.789   3.726   3.618
  118SOL    HW1  535   3.780   3.824   3.636
  118SOL    HW2  536   3.735   3.675   3.686
  119SOL     OW  537   5.254   4.988   3.760
  119SOL    HW1  538   5.320   5.043   3.812
  119SOL    HW2  539   5.179   4.962   3.820
  120SOL     OW  540   2.096   4.239   0.246
  120SOL    HW1  541   2.026   4.259   0.315
  120SOL    HW2  542   2.052   4.207   0.162
  121SOL     OW  543   0.925   2.296   3.799
  121SOL    HW1  544   0.827   2.279   3.804
  121SOL    HW2  545   0.942   2.372   3.736
  122SOL     OW  546   2.659   3.872   2.508
  122SOL    HW1  547   2.741   3.910   2.465
  122SOL    HW2  548   2.635   3.787   2.462
  123SOL     OW  549   5.165   5.309   3.716
  123SOL    HW1  550   5.118   5.233   3.669
  123SOL    HW2  551   5.135   5.312   3.811
  124SOL     OW  552   1.305   3.699   0.638
  124SOL    HW1  553   1.340   3.748   0.718
  124SOL    HW2  554   1.382   3.677   0.577
  125SOL     OW  555   3.046   4.862   2.381
  125SOL    HW1  556   3.115   4.790   2.383
  125SOL    HW2  557   2.955   4.821   2.386
  126SOL     OW  558   5.342   2.464   4.298
  126SOL    HW1  559   5.302   2.437   4.385
  126SOL    HW2  560   5.441   2.451   4.301
  127SOL     OW  561   4.555   1.478   2.737
  127SOL    HW1  562   4.651   1.494   2.716
  127SOL    HW2  563   4.505   1.565   2.730
  128SOL     OW  564   0.439   2.286   1.927
  128SOL    HW1  565   0.533   2.252   1.927
  128SOL    HW2  566   0.379   2.219   1.970
  129SOL     OW  567   2.989   3.623   2.511
  129SOL    HW1  568   3.035   3.576   2.437
  129SOL    HW2  569   2.901   3.658   2.479
  130SOL     OW  570   0.196   5.544   2.039
  130SOL    HW1  571   0.282   5.499   2.062
  130SOL    HW2  572   0.214   5.636   2.005
  131SOL     OW  573   5.462   4.036   5.226
  131SOL    HW1  574   5.378   4.083   5.198
  131SOL    HW2  575   5.442   3.941   5.247
  132SOL     OW  576   5.384   2.018   3.862
  132SOL    HW1  577   5.398   1.962   3.944
  132SOL    HW2  578   5.292   2.057   3.864
  133SOL     OW  579   5.609   4.458   2.160
  133SOL    HW1  580   5.543   4.423   2.226
  133SOL    HW2  581   5.589   4.554   2.140
  134SOL     OW  582   4.744   0.377   3.149
  134SOL    HW1  583   4.686   0.299   3.174
  134SOL    HW2  584   4.796   0.406   3.229
  135SOL     OW  585   4.564   4.456   3.011
  135SOL    HW1  586   4.486   4.516   2.995
  135SOL    HW2  587   4.531   4.365   3.037
  136SOL     OW  588   0.461   4.001   0.308
  136SOL    HW1  589   0.394   4.044   0.248
  136SOL    HW2  590   0.419   3.982   0.396
  137SOL     OW  591   1.809   1.588   1.600
  137SOL    HW1  592   1.712   1.572   1.585
  137SOL    HW2  593   1.831   1.683   1.580
  138SOL     OW  594   3.847   4.898   5.236
  138SOL    HW1  595   3.855   4.804   5.202
  138SOL    HW2  596   3.806   4.897   5.327
  139SOL     OW  597   2.973   0.689   5.228
  139SOL    HW1  598   2.887   0.723   5.189
  139SOL    HW2  599   2.954   0.621   5.298
  140SOL     OW  600   0.747   5.208   5.482
  140SOL    HW1  601   0.693   5.164   5.554
  140SOL    HW2  602   0.732   5.306   5.485
  141SOL     OW  603   1.688   3.445   3.180
  141SOL    HW1  604   1.663   3.536   3.212
  141SOL    HW2  605   1.772   3.416   3.227
  142SOL     OW  606   3.196   3.335   1.159
  142SOL    HW1  607   3.267   3.405   1.156
  142SOL    HW2  608   3.106   3.378   1.151
  143SOL     OW  609   4.188   1.498   5.472
  143SOL    HW1  610   4.252   1.428   5.501
  143SOL    HW2  611   4.129   1.523   5.549
  144SOL     OW  612   1.521   5.469   5.002
  144SOL    HW1  613   1.529   5.541   5.072
  144SOL    HW2  614   1.468   5.393   5.039
  145SOL     OW  615   2.189   0.386   0.784
  145SOL    HW1  616   2.220   0.299   0.821
  145SOL    HW2  617   2.268   0.439   0.753
  146SOL     OW  618   0.529   1.180   1.006
  146SOL    HW1  619   0.608   1.234   1.036
  146SOL    HW2  620   0.562   1.092   0.971
  147SOL     OW  621   5.414   2.415   4.588
  147SOL    HW1  622   5.506   2.398   4.622
  147SOL    HW2  623   5.348   2.385   4.657
  148SOL     OW  624   3.307   4.340   3.749
  148SOL    HW1  625   3.398   4.299   3.747
  148SOL    HW2  626   3.312   4.429   3.796
  149SOL     OW  627   2.077   0.231   0.511
  149SOL    HW1  628   2.098   0.285   0.593
  149SOL    HW2  629   2.127   0.145   0.514
  150SOL     OW  630   0.630   0.816   1.161
  150SOL    HW1  631   0.672   0.734   1.199
  150SOL    HW2  632   0.701   0.870   1.114
  151SOL     OW  633   5.027   3.355   1.679
  151SOL    HW1  634   5.114   3.315   1.648
  151SOL    HW2  635   4.983   3.292   1.742
  152SOL     OW  636   0.878   3.728   2.989
  152SOL    HW1  637   0.950   3.691   2.929
  152SOL    HW2  638   0.822   3.653   3.023
  153SOL     OW  639   2.977   1.677   4.482
  153SOL    HW1  640   2.969   1.753   4.546
  153SOL    HW2  641   3.065   1.682   4.435
  154SOL     OW  642   5.031   1.998   4.157
  154SOL    HW1  643   4.988   1.915   4.122
  154SOL    HW2  644   5.083   1.977   4.240
  155SOL     OW  645   3.133   4.047   4.972
  155SOL    HW1  646   3.228   4.045   5.003
  155SOL    HW2  647   3.106   3.956   4.943
  156SOL     OW  648   2.291   4.125   4.079
  156SOL    HW1  649   2.296   4.213   4.126
  156SOL    HW2  650   2.195   4.103   4.060
  157SOL     OW  651   1.734   2.146   2.151
  157SOL    HW1  652   1.652   2.091   2.170
  157SOL    HW2  653   1.708   2.242   2.142
  158SOL     OW  654   0.450   5.649   1.130
  158SOL    HW1  655   0.521   5.582   1.106
  158SOL    HW2  656   0.370   5.601   1.165
  159SOL     OW  657   2.537   4.573   4.172
  159SOL    HW1  658   2.501   4.511   4.241
  159SOL    HW2  659   2.617   4.621   4.208
  160SOL     OW  660   4.330   5.538   3.932
  160SOL    HW1  661   4.293   5.608   3.871
  160SOL    HW2  662   4.428   5.554   3.946
  161SOL     OW  663   2.209   4.920   5.369
  161SOL    HW1  664   2.185   5.007   5.326
  161SOL    HW2  665   2.138   4.897   5.436
  162SOL     OW  666   1.681   4.815   3.309
  162SOL    HW1  667   1.662   4.912   3.325
  162SOL    HW2  668   1.699   4.770   3.397
  163SOL     OW  669   1.019   2.890   4.955
  163SOL    HW1  670   1.082   2.875   4.879
  163SOL    HW2  671   1.069   2.932   5.031
  164SOL     OW  672   4.436   2.193   3.776
  164SOL    HW1  673   4.349   2.208   3.730
  164SOL    HW2  674   4.511   2.207   3.711
  165SOL     OW  675   1.555   4.054   3.139
  165SOL    HW1  676   1.484   3.997   3.098
  165SOL    HW2  677   1.515   4.141   3.168
  166SOL     OW  678   3.802   3.473   1.927
  166SOL    HW1  679   3.863   3.478   2.007
  166SOL    HW2  680   3.853   3.500   1.845
  167SOL     OW  681   4.295   4.412   5.439
  167SOL    HW1  682   4.379   4.465   5.438
  167SOL    HW2  683   4.276   4.382   5.533
  168SOL     OW  684   0.568   0.843   2.620
  168SOL    HW1  685   0.625   0.769   2.584
  168SOL    HW2  686   0.484   0.805   2.658
  169SOL     OW  687   3.642   2.570   5.474
  169SOL    HW1  688   3.601   2.624   5.400
  169SOL    HW2  689   3.723   2.522   5.439
  170SOL     OW  690   1.591   0.659   2.304
  170SOL    HW1  691   1.653   0.588   2.339
  170SOL    HW2  692   1.566   0.720   2.379
  171SOL     OW  693   2.631   2.634   2.922
  171SOL    HW1  694   2.565   2.680   2.862
  171SOL    HW2  695   2.585   2.604   3.005
  172SOL     OW  696   5.467   0.179   4.140
  172SOL    HW1  697   5.368   0.179   4.153
  172SOL    HW2  698   5.498   0.272   4.123
  173SOL     OW  699   2.304   0.185   4.389
  173SOL    HW1  700   2.320   0.153   4.296
  173SOL    HW2  701   2.381   0.156   4.447
  174SOL     OW  702   5.369   0.609   5.398
  174SOL    HW1  703   5.427   0.651   5.328
  174SOL    HW2  704   5.278   0.648   5.393
  175SOL     OW  705   4.396   0.411   0.679
  175SOL    HW1  706   4.410   0.313   0.694
  175SOL    HW2  707   4.349   0.450   0.758
  176SOL     OW  708   3.228   4.793   0.500
  176SOL    HW1  709   3.291   4.839   0.562
  176SOL    HW2  710   3.268   4.790   0.408
  177SOL     OW  711   5.515   0.251   4.450
  177SOL    HW1  712   5.422   0.226   4.474
  177SOL    HW2  713   5.556   0.178   4.395
  178SOL     OW  714   0.269   4.140   3.740
  178SOL    HW1  715   0.254   4.169   3.645
  178SOL    HW2  716   0.367   4.133   3.757
  179SOL     OW  717   0.923   0.511   1.507
  179SOL    HW1  718   0.851   0.464   1.558
  179SOL    HW2  719   0.906   0.500   1.409
  180SOL     OW  720   3.389   1.729   4.026
  180SOL    HW1  721   3.484   1.757   4.013
  180SOL    HW2  722   3.386   1.632   4.052
  181SOL     OW  723   3.188   2.339   0.993
  181SOL    HW1  724   3.253   2.271   1.028
  181SOL    HW2  725   3.096   2.317   1.026
  182SOL     OW  726   3.188   3.770   2.079
  182SOL    HW1  727   3.257   3.792   2.148
  182SOL    HW2  728   3.143   3.685   2.103
  183SOL     OW  729   0.656   1.650   5.235
  183SOL    HW1  730   0.692   1.574   5.181
  183SOL    HW2  731   0.580   1.693   5.185
  184SOL     OW  732   5.614   1.906   5.164
  184SOL    HW1  733   5.616   1.999   5.126
  184SOL    HW2  734   5.537   1.856   5.123
  185SOL     OW  735   4.958   1.981   1.001
  185SOL    HW1  736   5.034   2.013   0.945
  185SOL    HW2  737   4.900   2.059   1.025
  186SOL     OW  738   0.260   5.275   2.151
  186SOL    HW1  739   0.175   5.322   2.129
  186SOL    HW2  740   0.250   5.177   2.131
  187SOL     OW  741   1.657   4.303   1.010
  187SOL    HW1  742   1.577   4.314   1.069
  187SOL    HW2  743   1.733   4.357   1.047
  188SOL     OW  744   0.462   1.536   1.006
  188SOL    HW1  745   0.434   1.440   1.009
  188SOL    HW2  746   0.552   1.545   1.048
  189SOL     OW  747   2.573   3.769   4.542
  189SOL    HW1  748   2.513   3.794   4.466
  189SOL    HW2  749   2.584   3.670   4.543
  190SOL     OW  750   2.924   1.810   2.918
  190SOL    HW1  751   2.836   1.763   2.916
  190SOL    HW2  752   2.916   1.892   2.974
  191SOL     OW  753   4.624   3.673   5.201
  191SOL    HW1  754   4.660   3.765   5.186
  191SOL    HW2  755   4.557   3.652   5.130
  192SOL     OW  756   5.577   1.481   2.856
  192SOL    HW1  757   5.479   1.468   2.843
  192SOL    HW2  758   5.610   1.413   2.922
  193SOL     OW  759   4.758   1.122   1.934
  193SOL    HW1  760   4.730   1.207   1.889
  193SOL    HW2  761   4.745   1.046   1.871
  194SOL     OW  762   3.797   0.941   0.509
  194SOL    HW1  763   3.870   0.900   0.565
  194SOL    HW2  764   3.739   0.868   0.472
  195SOL     OW  765   3.674   5.616   1.430
  195SOL    HW1  766   3.743   5.598   1.500
  195SOL    HW2  767   3.591   5.650   1.474
  196SOL     OW  768   4.315   1.522   3.261
  196SOL    HW1  769   4.319   1.441   3.202
  196SOL    HW2  770   4.382   1.589   3.228
  197SOL     OW  771   1.762   0.713   4.306
  197SOL    HW1  772   1.762   0.634   4.245
  197SOL    HW2  773   1.851   0.758   4.301
  198SOL     OW  774   3.092   4.030   5.421
  198SOL    HW1  775   3.114   3.952   5.362
  198SOL    HW2  776   3.174   4.056   5.472
  199SOL     OW  777   4.966   4.153   4.122
  199SOL    HW1  778   5.057   4.182   4.091
  199SOL    HW2  779   4.976   4.077   4.185
  200SOL     OW  780   4.311   5.312   4.683
  200SOL    HW1  781   4.280   5.219   4.665
  200SOL    HW2  782   4.302   5.366   4.600
  201SOL     OW  783   5.413   1.358   5.273
  201SOL    HW1  784   5.365   1.281   5.315
  201SOL    HW2  785   5.510   1.334   5.262
  202SOL     OW  786   3.135   2.952   2.718
  202SOL    HW1  787   3.060   2.895   2.686
  202SOL    HW2  788   3.163   2.922   2.809
  203SOL     OW  789   2.485   4.162   4.767
  203SOL    HW1  790   2.408   4.209   4.810
  203SOL    HW2  791   2.471   4.063   4.775
  204SOL     OW  792   4.602   3.477   1.499
  204SOL    HW1  793   4.529   3.409   1.489
  204SOL    HW2  794   4.636   3.502   1.408
  205SOL     OW  795   3.832   3.177   4.791
  205SOL    HW1  796   3.774   3.096   4.785
  205SOL    HW2  797   3.922   3.156   4.754
  206SOL     OW  798   2.556   3.731   2.142
  206SOL    HW1  799   2.458   3.725   2.160
  206SOL    HW2  800   2.607   3.700   2.222
  207SOL     OW  801   4.373   5.643   3.399
  207SOL    HW1  802   4.276   5.666   3.402
  207SOL    HW2  803   4.385   5.560   3.345
  208SOL     OW  804   0.850   1.498   2.335
  208SOL    HW1  805   0.766   1.543   2.305
  208SOL    HW2  806   0.828   1.432   2.407
  209SOL     OW  807   1.397   4.842   0.609
  209SOL    HW1  808   1.307   4.808   0.634
  209SOL    HW2  809   1.402   4.852   0.510
  210SOL     OW  810   3.652   4.610   4.171
  210SOL    HW1  811   3.718   4.682   4.194
  210SOL    HW2  812   3.667   4.581   4.077
  211SOL     OW  813   0.633   5.156   4.891
  211SOL    HW1  814   0.647   5.206   4.806
  211SOL    HW2  815   0.692   5.075   4.892
  212SOL     OW  816   5.507   1.023   1.707
  212SOL    HW1  817   5.425   0.968   1.722
  212SOL    HW2  818   5.546   0.999   1.618
  213SOL     OW  819   2.853   0.721   3.296
  213SOL    HW1  820   2.898   0.796   3.247
  213SOL    HW2  821   2.754   0.733   3.291
  214SOL     OW  822   2.136   0.347   4.020
  214SOL    HW1  823   2.140   0.435   4.068
  214SOL    HW2  824   2.186   0.354   3.934
  215SOL     OW  825   2.908   1.870   3.640
  215SOL    HW1  826   2.970   1.872   3.562
  215SOL    HW2  827   2.960   1.844   3.722
  216SOL     OW  828   4.121   3.952   3.526
  216SOL    HW1  829   4.100   4.032   3.582
  216SOL    HW2  830   4.065   3.875   3.556
  217SOL     OW  831   1.056   5.000   3.152
  217SOL    HW1  832   0.996   4.945   3.210
  217SOL    HW2  833   1.131   4.944   3.120
  218SOL     OW  834   1.924   5.267   1.675
  218SOL    HW1  835   2.005   5.210   1.677
  218SOL    HW2  836   1.947   5.356   1.634
  219SOL     OW  837   0.889   1.633   3.168
  219SOL    HW1  838   0.833   1.550   3.172
  219SOL    HW2  839   0.831   1.712   3.188
  220SOL     OW  840   2.591   5.598   0.176
  220SOL    HW1  841   2.636   5.660   0.240
  220SOL    HW2  842   2.655   5.526   0.150
  221SOL     OW  843   2.603   4.970   0.922
  221SOL    HW1  844   2.666   5.020   0.863
  221SOL    HW2  845   2.509   4.995   0.898
  222SOL     OW  846   0.541   1.895   4.025
  222SOL    HW1  847   0.550   1.800   4.053
  222SOL    HW2  848   0.632   1.935   4.016
  223SOL     OW  849   4.420   4.120   3.600
  223SOL    HW1  850   4.435   4.207   3.553
  223SOL    HW2  851   4.506   4.089   3.641
  224SOL     OW  852   3.341   3.393   0.393
  224SOL    HW1  853   3.261   3.450   0.372
  224SOL    HW2  854   3.322   3.299   0.366
  225SOL     OW  855   5.510   2.204   5.130
  225SOL    HW1  856   5.598   2.241   5.159
  225SOL    HW2  857   5.444   2.278   5.121
  226SOL     OW  858   1.700   4.029   2.849
  226SOL    HW1  859   1.766   3.957   2.870
  226SOL    HW2  860   1.618   4.015   2.904
  227SOL     OW  861   0.780   1.409   0.932
  227SOL    HW1  862   0.776   1.333   0.868
  227SOL    HW2  863   0.875   1.439   0.944
  228SOL     OW  864   2.659   3.084   1.127
  228SOL    HW1  865   2.650   3.008   1.191
  228SOL    HW2  866   2.701   3.161   1.173
  229SOL     OW  867   2.607   5.370   0.376
  229SOL    HW1  868   2.532   5.435   0.384
  229SOL    HW2  869   2.688   5.408   0.419
  230SOL     OW  870   0.543   4.509   3.695
  230SOL    HW1  871   0.631   4.542   3.728
  230SOL    HW2  872   0.481   4.586   3.681
  231SOL     OW  873   5.490   0.420   2.597
  231SOL    HW1  874   5.394   0.403   2.616
  231SOL    HW2  875   5.542   0.335   2.612
  232SOL     OW  876   4.472   3.352   1.770
  232SOL    HW1  877   4.395   3.415   1.760
  232SOL    HW2  878   4.558   3.404   1.769
  233SOL     OW  879   3.332   3.736   0.729
  233SOL    HW1  880   3.348   3.708   0.634
  233SOL    HW2  881   3.308   3.655   0.783
  234SOL     OW  882   0.530   1.909   2.388
  234SOL    HW1  883   0.613   1.920   2.442
  234SOL    HW2  884   0.460   1.864   2.444
  235SOL     OW  885   0.824   4.905   4.959
  235SOL    HW1  886   0.888   4.942   5.026
  235SOL    HW2  887   0.839   4.806   4.951
  236SOL     OW  888   0.243   1.137   5.244
  236SOL    HW1  889   0.303   1.203   5.290
  236SOL    HW2  890   0.286   1.047   5.247
  237SOL     OW  891   1.977   3.114   0.976
  237SOL    HW1  892   1.886   3.153   0.965
  237SOL    HW2  893   2.009   3.080   0.887
  238SOL     OW  894   5.567   4.698   1.132
  238SOL    HW1  895   5.621   4.765   1.080
  238SOL    HW2  896   5.629   4.636   1.180
  239SOL     OW  897   0.945   3.313   5.635
  239SOL    HW1  898   0.994   3.399   5.620
  239SOL    HW2  899   1.007   3.237   5.618
  240SOL     OW  900   2.104   1.843   2.112
  240SOL    HW1  901   2.136   1.866   2.019
  240SOL    HW2  902   2.061   1.924   2.152
  241SOL     OW  903   4.298   5.171   2.060
  241SOL    HW1  904   4.306   5.268   2.079
  241SOL    HW2  905   4.201   5.146   2.053
  242SOL     OW  906   4.098   3.411   3.356
  242SOL    HW1  907   4.137   3.337   3.412
  242SOL    HW2  908   4.058   3.373   3.273
  243SOL     OW  909   3.488   2.015   4.063
  243SOL    HW1  910   3.537   2.102   4.070
  243SOL    HW2  911   3.483   1.972   4.153
  244SOL     OW  912   3.598   0.996   2.259
  244SOL    HW1  913   3.665   0.930   2.225
  244SOL    HW2  914   3.617   1.016   2.355
  245SOL     OW  915   3.403   2.733   3.064
  245SOL    HW1  916   3.468   2.665   3.097
  245SOL    HW2  917   3.415   2.818   3.115
  246SOL     OW  918   5.546   4.049   5.618
  246SOL    HW1  919   5.604   4.038   5.538
  246SOL    HW2  920   5.519   4.145   5.626
  247SOL     OW  921   1.862   3.236   2.200
  247SOL    HW1  922   1.920   3.262   2.277
  247SOL    HW2  923   1.862   3.136   2.191
  248SOL     OW  924   3.040   0.724   2.929
  248SOL    HW1  925   2.953   0.676   2.917
  248SOL    HW2  926   3.064   0.770   2.843
  249SOL     OW  927   4.719   3.991   5.051
  249SOL    HW1  928   4.752   4.078   5.089
  249SOL    HW2  929   4.720   3.996   4.951
  250SOL     OW  930   2.884   2.766   1.684
  250SOL    HW1  931   2.913   2.680   1.643
  250SOL    HW2  932   2.893   2.840   1.617
  251SOL     OW  933   1.615   1.833   0.550
  251SOL    HW1  934   1.538   1.877   0.596
  251SOL    HW2  935   1.700   1.858   0.598
  252SOL     OW  936   2.007   4.377   2.892
  252SOL    HW1  937   1.920   4.415   2.925
  252SOL    HW2  938   2.010   4.383   2.793
  253SOL     OW  939   5.253   3.212   3.346
  253SOL    HW1  940   5.261   3.152   3.425
  253SOL    HW2  941   5.254   3.157   3.262
  254SOL     OW  942   4.796   1.275   4.146
  254SOL    HW1  943   4.836   1.198   4.197
  254SOL    HW2  944   4.718   1.311   4.198
  255SOL     OW  945   2.514   0.919   4.562
  255SOL    HW1  946   2.423   0.881   4.546
  255SOL    HW2  947   2.506   1.015   4.589
  256SOL     OW  948   1.919   3.915   4.552
  256SOL    HW1  949   1.879   3.826   4.532
  256SOL    HW2  950   1.846   3.982   4.566
  257SOL     OW  951   4.711   0.310   2.859
  257SOL    HW1  952   4.712   0.312   2.759
  257SOL    HW2  953   4.745   0.397   2.895
  258SOL     OW  954   4.372   2.921   2.876
  258SOL    HW1  955   4.449   2.984   2.868
  258SOL    HW2  956   4.343   2.917   2.971
  259SOL     OW  957   5.559   4.462   3.309
  259SOL    HW1  958   5.589   4.546   3.354
  259SOL    HW2  959   5.485   4.421   3.362
  260SOL     OW  960   1.225   5.323   1.187
  260SOL    HW1  961   1.222   5.297   1.284
  260SOL    HW2  962   1.208   5.421   1.179
  261SOL     OW  963   1.047   1.298   0.983
  261SOL    HW1  964   1.025   1.316   1.079
  261SOL    HW2  965   1.144   1.275   0.976
  262SOL     OW  966   5.428   3.036   1.248
  262SOL    HW1  967   5.524   3.049   1.224
  262SOL    HW2  968   5.384   3.126   1.256
  263SOL     OW  969   4.161   1.705   2.076
  263SOL    HW1  970   4.169   1.716   2.175
  263SOL    HW2  971   4.162   1.796   2.033
  264SOL     OW  972   1.379   4.225   1.113
  264SOL    HW1  973   1.315   4.150   1.096
  264SOL    HW2  974   1.332   4.312   1.097
  265SOL     OW  975   4.736   5.528   1.123
  265SOL    HW1  976   4.774   5.611   1.162
  265SOL    HW2  977   4.646   5.548   1.084
  266SOL     OW  978   3.962   3.286   3.694
  266SOL    HW1  979   3.954   3.377   3.653
  266SOL    HW2  980   4.034   3.287   3.763
  267SOL     OW  981   2.144   1.866   1.843
  267SOL    HW1  982   2.236   1.846   1.808
  267SOL    HW2  983   2.079   1.801   1.803
  268SOL     OW  984   3.661   2.643   0.762
  268SOL    HW1  985   3.660   2.702   0.681
  268SOL    HW2  986   3.756   2.626   0.789
  269SOL     OW  987   3.443   4.001   0.758
  269SOL    HW1  988   3.540   3.982   0.774
  269SOL    HW2  989   3.393   3.915   0.747
  270SOL     OW  990   4.027   1.987   3.215
  270SOL    HW1  991   3.951   2.051   3.228
  270SOL    HW2  992   4.011   1.905   3.270
  271SOL     OW  993   5.160   0.998   0.614
  271SOL    HW1  994   5.162   1.093   0.643
  271SOL    HW2  995   5.104   0.945   0.678
  272SOL     OW  996   3.011   3.751   0.541
  272SOL    HW1  997   3.105   3.783   0.533
  272SOL    HW2  998   2.986   3.747   0.638
  273SOL     OW  999   2.738   1.497   0.226
  273SOL    HW1 1000   2.836   1.476   0.235
  273SOL    HW2 1001   2.723   1.593   0.252
  274SOL     OW 1002   1.766   4.897   1.935
  274SOL    HW1 1003   1.743   4.984   1.892
  274SOL    HW2 1004   1.850   4.861   1.895
  275SOL     OW 1005   4.756   2.576   0.892
  275SOL    HW1 1006   4.807   2.525   0.961
  275SOL    HW2 1007   4.791   2.669   0.888
  276SOL     OW 1008   3.332   5.409   3.170
  276SOL    HW1 1009   3.420   5.446   3.139
  276SOL    HW2 1010   3.260   5.437   3.106
  277SOL     OW 1011   1.172   2.762   1.234
  277SOL    HW1 1012   1.251   2.817   1.262
  277SOL    HW2 1013   1.143   2.704   1.310
  278SOL     OW 1014   4.970   2.949   4.843
  278SOL    HW1 1015   5.068   2.936   4.833
  278SOL    HW2 1016   4.953   3.042   4.876
  279SOL     OW 1017   1.036   3.326   2.853
  279SOL    HW1 1018   0.983   3.397   2.899
  279SOL    HW2 1019   1.062   3.256   2.919
  280SOL     OW 1020   1.329   5.118   3.417
  280SOL    HW1 1021   1.351   5.142   3.322
  280SOL    HW2 1022   1.411   5.085   3.462
  281SOL     OW 1023   1.772   1.634   2.670
  281SOL    HW1 1024   1.870   1.617   2.674
  281SOL    HW2 1025   1.723   1.556   2.709
  282SOL     OW 1026   1.707   3.582   4.254
  282SOL    HW1 1027   1.640   3.562   4.183
  282SOL    HW2 1028   1.783   3.633   4.213
  283SOL     OW 1029   4.583   3.482   4.565
  283SOL    HW1 1030   4.491   3.451   4.587
  283SOL    HW2 1031   4.580   3.578   4.536
  284SOL     OW 1032   2.134   2.289   1.541
  284SOL    HW1 1033   2.095   2.290   1.449
  284SOL    HW2 1034   2.193   2.369   1.553
  285SOL     OW 1035   2.526   3.702   5.556
  285SOL    HW1 1036   2.482   3.670   5.473
  285SOL    HW2 1037   2.588   3.777   5.534
  286SOL     OW 1038   3.974   4.723   4.909
  286SOL    HW1 1039   4.049   4.663   4.937
  286SOL    HW2 1040   3.983   4.810   4.956
  287SOL     OW 1041   2.799   2.667   1.160
  287SOL    HW1 1042   2.863   2.603   1.117
  287SOL    HW2 1043   2.706   2.641   1.137
  288SOL     OW 1044   0.962   0.956   2.665
  288SOL    HW1 1045   0.870   0.987   2.638
  288SOL    HW2 1046   0.967   0.951   2.764
  289SOL     OW 1047   1.552   3.242   5.360
  289SOL    HW1 1048   1.474   3.297   5.389
  289SOL    HW2 1049   1.561   3.163   5.422
  290SOL     OW 1050   4.148   5.619   3.086
  290SOL    HW1 1051   4.176   5.658   2.998
  290SOL    HW2 1052   4.116   5.525   3.071
  291SOL     OW 1053   3.602   4.428   2.612
  291SOL    HW1 1054   3.699   4.412   2.630
  291SOL    HW2 1055   3.578   4.521   2.641
  292SOL     OW 1056   1.494   2.428   0.579
  292SOL    HW1 1057   1.583   2.434   0.625
  292SOL    HW2 1058   1.488   2.499   0.509
  293SOL     OW 1059   1.226   3.013   0.460
  293SOL    HW1 1060   1.219   3.031   0.362
  293SOL    HW2 1061   1.193   2.920   0.478
  294SOL     OW 1062   3.649   1.867   3.648
  294SOL    HW1 1063   3.596   1.814   3.582
  294SOL    HW2 1064   3.740   1.828   3.656
  295SOL     OW 1065   1.846   5.136   4.493
  295SOL    HW1 1066   1.766   5.081   4.518
  295SOL    HW2 1067   1.851   5.145   4.394
  296SOL     OW 1068   2.062   1.013   5.538
  296SOL    HW1 1069   2.007   1.067   5.475
  296SOL    HW2 1070   2.006   0.940   5.576
  297SOL     OW 1071   0.536   4.781   2.092
  297SOL    HW1 1072   0.612   4.747   2.148
  297SOL    HW2 1073   0.509   4.710   2.027
  298SOL     OW 1074   0.478   2.695   2.350
  298SOL    HW1 1075   0.576   2.711   2.337
  298SOL    HW2 1076   0.428   2.781   2.335
  299SOL     OW 1077   4.086   5.644   3.437
  299SOL    HW1 1078   4.034   5.604   3.361
  299SOL    HW2 1079   4.066   5.594   3.521
  300SOL     OW 1080   5.451   4.351   5.549
  300SOL    HW1 1081   5.493   4.395   5.629
  300SOL    HW2 1082   5.444   4.417   5.475
  301SOL     OW 1083   3.905   4.717   1.651
  301SOL    HW1 1084   3.951   4.718   1.740
  301SOL    HW2 1085   3.813   4.678   1.662
  302SOL     OW 1086   1.844   4.312   3.218
  302SOL    HW1 1087   1.782   4.258   3.276
  302SOL    HW2 1088   1.843   4.274   3.126
  303SOL     OW 1089   4.837   3.837   2.435
  303SOL    HW1 1090   4.821   3.816   2.339
  303SOL    HW2 1091   4.825   3.754   2.490
  304SOL     OW 1092   3.968   3.650   1.738
  304SOL    HW1 1093   3.931   3.732   1.695
  304SOL    HW2 1094   3.999   3.587   1.666
  305SOL     OW 1095   1.238   5.075   5.641
  305SOL    HW1 1096   1.156   5.036   5.601
  305SOL    HW2 1097   1.300   5.103   5.568
  306SOL     OW 1098   3.318   3.777   3.354
  306SOL    HW1 1099   3.405   3.726   3.351
  306SOL    HW2 1100   3.290   3.799   3.261
  307SOL     OW 1101   3.101   1.858   4.925
  307SOL    HW1 1102   3.156   1.774   4.929
  307SOL    HW2 1103   3.007   1.836   4.952
  308SOL     OW 1104   0.338   2.405   1.450
  308SOL    HW1 1105   0.337   2.481   1.515
  308SOL    HW2 1106   0.318   2.320   1.498
  309SOL     OW 1107   4.292   4.694   2.697
  309SOL    HW1 1108   4.386   4.707   2.666
  309SOL    HW2 1109   4.236   4.661   2.621
  310SOL     OW 1110   4.418   3.405   3.293
  310SOL    HW1 1111   4.352   3.479   3.300
  310SOL    HW2 1112   4.370   3.317   3.304
  311SOL     OW 1113   0.381   3.843   4.334
  311SOL    HW1 1114   0.303   3.833   4.396
  311SOL    HW2 1115   0.450   3.901   4.376
  312SOL     OW 1116   1.635   1.107   3.829
  312SOL    HW1 1117   1.541   1.134   3.809
  312SOL    HW2 1118   1.645   1.009   3.812
  313SOL     OW 1119   1.550   2.418   2.078
  313SOL    HW1 1120   1.555   2.409   1.979
  313SOL    HW2 1121   1.606   2.497   2.107
  314SOL     OW 1122   3.223   4.078   4.599
  314SOL    HW1 1123   3.309   4.041   4.564
  314SOL    HW2 1124   3.155   4.004   4.602
  315SOL     OW 1125   3.856   1.038   1.810
  315SOL    HW1 1126   3.765   1.007   1.838
  315SOL    HW2 1127   3.923   0.969   1.837
  316SOL     OW 1128   4.524   4.399   3.620
  316SOL    HW1 1129   4.436   4.404   3.667
  316SOL    HW2 1130   4.559   4.491   3.606
  317SOL     OW 1131   2.543   0.536   5.434
  317SOL    HW1 1132   2.506   0.529   5.342
  317SOL    HW2 1133   2.513   0.622   5.475
  318SOL     OW 1134   3.310   0.712   2.546
  318SOL    HW1 1135   3.374   0.789   2.550
  318SOL    HW2 1136   3.219   0.744   2.575
  319SOL     OW 1137   3.097   1.813   2.720
  319SOL    HW1 1138   3.167   1.746   2.745
  319SOL    HW2 1139   3.027   1.816   2.792
  320SOL     OW 1140   4.311   0.217   3.719
  320SOL    HW1 1141   4.335   0.163   3.800
  320SOL    HW2 1142   4.332   0.313   3.736
  321SOL     OW 1143   4.611   5.564   1.430
  321SOL    HW1 1144   4.703   5.596   1.404
  321SOL    HW2 1145   4.620   5.491   1.498
  322SOL     OW 1146   3.214   0.971   3.293
  322SOL    HW1 1147   3.185   0.879   3.320
  322SOL    HW2 1148   3.297   0.965   3.238
  323SOL     OW 1149   2.613   3.118   4.389
  323SOL    HW1 1150   2.553   3.172   4.331
  323SOL    HW2 1151   2.559   3.075   4.461
  324SOL     OW 1152   3.295   2.670   1.008
  324SOL    HW1 1153   3.208   2.672   0.960
  324SOL    HW2 1154   3.341   2.757   0.996
  325SOL     OW 1155   0.471   1.382   2.002
  325SOL    HW1 1156   0.424   1.294   1.999
  325SOL    HW2 1157   0.539   1.384   1.928
  326SOL     OW 1158   5.279   2.906   3.989
  326SOL    HW1 1159   5.339   2.827   3.981
  326SOL    HW2 1160   5.316   2.982   3.935
  327SOL     OW 1161   2.379   4.571   0.713
  327SOL    HW1 1162   2.385   4.520   0.627
  327SOL    HW2 1163   2.349   4.664   0.694
  328SOL     OW 1164   1.062   4.002   0.753
  328SOL    HW1 1165   1.024   3.954   0.674
  328SOL    HW2 1166   1.112   4.083   0.721
  329SOL     OW 1167   5.053   4.383   1.000
  329SOL    HW1 1168   5.048   4.309   1.068
  329SOL    HW2 1169   4.961   4.399   0.963
  330SOL     OW 1170   1.464   5.544   1.379
  330SOL    HW1 1171   1.458   5.451   1.415
  330SOL    HW2 1172   1.409   5.606   1.436
  331SOL     OW 1173   2.588   0.494   0.549
  331SOL    HW1 1174   2.683   0.503   0.520
  331SOL    HW2 1175   2.534   0.567   0.509
  332SOL     OW 1176   4.151   0.938   1.324
  332SOL    HW1 1177   4.160   0.840   1.337
  332SOL    HW2 1178   4.058   0.966   1.346
  333SOL     OW 1179   4.859   4.711   4.303
  333SOL    HW1 1180   4.947   4.669   4.323
  333SOL    HW2 1181   4.870   4.810   4.301
  334SOL     OW 1182   0.778   1.587   2.894
  334SOL    HW1 1183   0.768   1.610   2.798
  334SOL    HW2 1184   0.868   1.618   2.926
  335SOL     OW 1185   1.194   1.263   1.968
  335SOL    HW1 1186   1.203   1.164   1.964
  335SOL    HW2 1187   1.109   1.287   2.015
  336SOL     OW 1188   2.492   5.306   4.254
  336SOL    HW1 1189   2.532   5.388   4.213
  336SOL    HW2 1190   2.475   5.322   4.351
  337SOL     OW 1191   4.236   0.566   1.229
  337SOL    HW1 1192   4.314   0.503   1.227
  337SOL    HW2 1193   4.251   0.634   1.300
  338SOL     OW 1194   4.507   5.611   0.724
  338SOL    HW1 1195   4.598   5.582   0.694
  338SOL    HW2 1196   4.467   5.539   0.781
  339SOL     OW 1197   3.258   0.974   4.506
  339SOL    HW1 1198   3.201   1.005   4.429
  339SOL    HW2 1199   3.344   0.937   4.470
  340SOL     OW 1200   0.749   1.636   5.676
  340SOL    HW1 1201   0.655   1.662   5.653
  340SOL    HW2 1202   0.774   1.554   5.625
  341SOL     OW 1203   2.211   0.212   1.359
  341SOL    HW1 1204   2.288   0.154   1.333
  341SOL    HW2 1205   2.235   0.308   1.342
  342SOL     OW 1206   1.201   0.414   0.183
  342SOL    HW1 1207   1.278   0.470   0.214
  342SOL    HW2 1208   1.134   0.473   0.138
  343SOL     OW 1209   2.122   0.338   2.930
  343SOL    HW1 1210   2.161   0.421   2.969
  343SOL    HW2 1211   2.048   0.362   2.868
  344SOL     OW 1212   1.338   4.237   4.278
  344SOL    HW1 1213   1.273   4.162   4.290
  344SOL    HW2 1214   1.428   4.209   4.312
  345SOL     OW 1215   1.715   1.007   4.177
  345SOL    HW1 1216   1.640   0.985   4.114
  345SOL    HW2 1217   1.694   0.969   4.267
  346SOL     OW 1218   4.571   2.031   1.926
  346SOL    HW1 1219   4.611   2.105   1.872
  346SOL    HW2 1220   4.481   2.058   1.959
  347SOL     OW 1221   4.607   3.923   2.673
  347SOL    HW1 1222   4.534   3.956   2.613
  347SOL    HW2 1223   4.566   3.884   2.755
  348SOL     OW 1224   5.236   2.239   0.862
  348SOL    HW1 1225   5.228   2.303   0.939
  348SOL    HW2 1226   5.245   2.146   0.898
  349SOL     OW 1227   5.584   4.709   2.664
  349SOL    HW1 1228   5.545   4.779   2.604
  349SOL    HW2 1229   5.510   4.655   2.703
  350SOL     OW 1230   2.720   0.529   1.837
  350SOL    HW1 1231   2.778   0.602   1.873
  350SOL    HW2 1232   2.773   0.470   1.777
  351SOL     OW 1233   5.025   4.824   2.993
  351SOL    HW1 1234   4.935   4.792   3.021
  351SOL    HW2 1235   5.025   4.840   2.894
  352SOL     OW 1236   1.534   3.650   2.057
  352SOL    HW1 1237   1.454   3.674   2.002
  352SOL    HW2 1238   1.590   3.732   2.070
  353SOL     OW 1239   2.810   3.831   1.718
  353SOL    HW1 1240   2.909   3.827   1.731
  353SOL    HW2 1241   2.765   3.825   1.808
  354SOL     OW 1242   4.752   4.657   3.365
  354SOL    HW1 1243   4.801   4.576   3.334
  354SOL    HW2 1244   4.657   4.632   3.386
  355SOL     OW 1245   2.845   1.902   1.199
  355SOL    HW1 1246   2.899   1.848   1.264
  355SOL    HW2 1247   2.862   1.868   1.106
  356SOL     OW 1248   3.853   3.875   4.460
  356SOL    HW1 1249   3.791   3.925   4.520
  356SOL    HW2 1250   3.801   3.809   4.407
  357SOL     OW 1251   5.001   2.711   2.790
  357SOL    HW1 1252   4.985   2.627   2.737
  357SOL    HW2 1253   4.914   2.739   2.832
  358SOL     OW 1254   4.730   0.218   5.195
  358SOL    HW1 1255   4.705   0.277   5.118
  358SOL    HW2 1256   4.822   0.183   5.181
  359SOL     OW 1257   1.973   0.782   0.393
  359SOL    HW1 1258   1.929   0.743   0.474
  359SOL    HW2 1259   1.991   0.879   0.410
  360SOL     OW 1260   2.439   3.716   4.258
  360SOL    HW1 1261   2.501   3.719   4.179
  360SOL    HW2 1262   2.393   3.805   4.266
  361SOL     OW 1263   3.910   0.445   4.808
  361SOL    HW1 1264   3.960   0.444   4.721
  361SOL    HW2 1265   3.853   0.527   4.811
  362SOL     OW 1266   4.164   0.412   3.535
  362SOL    HW1 1267   4.179   0.511   3.527
  362SOL    HW2 1268   4.094   0.395   3.605
  363SOL     OW 1269   3.802   2.736   1.362
  363SOL    HW1 1270   3.797   2.779   1.452
  363SOL    HW2 1271   3.722   2.763   1.308
  364SOL     OW 1272   3.815   1.242   3.424
  364SOL    HW1 1273   3.898   1.290   3.397
  364SOL    HW2 1274   3.810   1.155   3.375
  365SOL     OW 1275   5.371   4.573   1.724
  365SOL    HW1 1276   5.372   4.643   1.795
  365SOL    HW2 1277   5.321   4.493   1.758
  366SOL     OW 1278   0.531   1.043   0.369
  366SOL    HW1 1279   0.619   1.002   0.389
  366SOL    HW2 1280   0.532   1.139   0.397
  367SOL     OW 1281   4.698   4.370   0.443
  367SOL    HW1 1282   4.649   4.401   0.361
  367SOL    HW2 1283   4.705   4.270   0.441
  368SOL     OW 1284   0.811   2.128   4.618
  368SOL    HW1 1285   0.755   2.051   4.647
  368SOL    HW2 1286   0.906   2.098   4.609
  369SOL     OW 1287   3.125   1.020   5.054
  369SOL    HW1 1288   3.198   0.962   5.090
  369SOL    HW2 1289   3.162   1.110   5.033
  370SOL     OW 1290   0.293   4.717   3.721
  370SOL    HW1 1291   0.288   4.794   3.784
  370SOL    HW2 1292   0.210   4.662   3.730
  371SOL     OW 1293   0.264   5.079   1.838
  371SOL    HW1 1294   0.247   4.995   1.785
  371SOL    HW2 1295   0.358   5.078   1.870
  372SOL     OW 1296   0.241   2.738   2.761
  372SOL    HW1 1297   0.168   2.806   2.762
  372SOL    HW2 1298   0.201   2.647   2.758
  373SOL     OW 1299   5.017   1.300   5.259
  373SOL    HW1 1300   4.930   1.256   5.236
  373SOL    HW2 1301   5.092   1.239   5.233
  374SOL     OW 1302   2.914   4.611   0.742
  374SOL    HW1 1303   2.962   4.638   0.826
  374SOL    HW2 1304   2.901   4.691   0.684
  375SOL     OW 1305   4.182   1.003   3.244
  375SOL    HW1 1306   4.135   1.090   3.227
  375SOL    HW2 1307   4.276   1.010   3.209
  376SOL     OW 1308   2.587   2.195   0.515
  376SOL    HW1 1309   2.687   2.196   0.516
  376SOL    HW2 1310   2.556   2.109   0.557
  377SOL     OW 1311   3.531   3.905   3.713
  377SOL    HW1 1312   3.457   3.972   3.715
  377SOL    HW2 1313   3.492   3.813   3.719
  378SOL     OW 1314   2.034   0.452   3.680
  378SOL    HW1 1315   2.103   0.518   3.651
  378SOL    HW2 1316   1.943   0.487   3.658
  379SOL     OW 1317   4.452   3.718   3.129
  379SOL    HW1 1318   4.435   3.768   3.044
  379SOL    HW2 1319   4.380   3.741   3.195
  380SOL     OW 1320   5.371   5.240   2.083
  380SOL    HW1 1321   5.392   5.335   2.061
  380SOL    HW2 1322   5.434   5.180   2.034
  381SOL     OW 1323   5.419   5.074   0.280
  381SOL    HW1 1324   5.388   5.155   0.231
  381SOL    HW2 1325   5.464   5.101   0.364
  382SOL     OW 1326   4.204   4.572   3.848
  382SOL    HW1 1327   4.118   4.543   3.808
  382SOL    HW2 1328   4.228   4.663   3.813
  383SOL     OW 1329   1.477   1.194   1.807
  383SOL    HW1 1330   1.521   1.124   1.752
  383SOL    HW2 1331   1.409   1.152   1.867
  384SOL     OW 1332   3.474   1.264   2.775
  384SOL    HW1 1333   3.515   1.176   2.798
  384SOL    HW2 1334   3.394   1.279   2.833
  385SOL     OW 1335   4.787   3.931   5.366
  385SOL    HW1 1336   4.835   3.860   5.417
  385SOL    HW2 1337   4.689   3.913   5.369
  386SOL     OW 1338   2.318   0.914   2.749
  386SOL    HW1 1339   2.413   0.935   2.775
  386SOL    HW2 1340   2.279   0.853   2.818
  387SOL     OW 1341   5.339   4.412   3.616
  387SOL    HW1 1342   5.291   4.446   3.697
  387SOL    HW2 1343   5.275   4.357   3.561
  388SOL     OW 1344   5.370   2.302   2.654
  388SOL    HW1 1345   5.465   2.272   2.643
  388SOL    HW2 1346   5.366   2.402   2.654
  389SOL     OW 1347   5.563   2.870   2.727
  389SOL    HW1 1348   5.552   2.905   2.820
  389SOL    HW2 1349   5.659   2.873   2.701
  390SOL     OW 1350   2.837   3.510   4.059
  390SOL    HW1 1351   2.849   3.552   4.149
  390SOL    HW2 1352   2.741   3.484   4.047
  391SOL     OW 1353   2.005   1.021   1.211
  391SOL    HW1 1354   2.047   1.049   1.297
  391SOL    HW2 1355   2.070   0.966   1.158
  392SOL     OW 1356   0.967   1.388   4.542
  392SOL    HW1 1357   1.054   1.363   4.584
  392SOL    HW2 1358   0.902   1.413   4.614
  393SOL     OW 1359   4.082   1.995   2.841
  393SOL    HW1 1360   4.058   1.966   2.933
  393SOL    HW2 1361   4.102   2.093   2.842
  394SOL     OW 1362   5.139   3.767   4.334
  394SOL    HW1 1363   5.183   3.855   4.350
  394SOL    HW2 1364   5.188   3.696   4.385
  395SOL     OW 1365   1.330   3.185   3.914
  395SOL    HW1 1366   1.267   3.249   3.959
  395SOL    HW2 1367   1.277   3.114   3.868
  396SOL     OW 1368   2.783   2.602   3.408
  396SOL    HW1 1369   2.768   2.655   3.491
  396SOL    HW2 1370   2.794   2.505   3.431
  397SOL     OW 1371   3.470   1.474   3.154
  397SOL    HW1 1372   3.375   1.456   3.177
  397SOL    HW2 1373   3.501   1.555   3.204
  398SOL     OW 1374   1.405   0.893   3.355
  398SOL    HW1 1375   1.426   0.878   3.258
  398SOL    HW2 1376   1.352   0.976   3.365
  399SOL     OW 1377   1.606   0.590   3.120
  399SOL    HW1 1378   1.587   0.674   3.068
  399SOL    HW2 1379   1.519   0.543   3.139
  400SOL     OW 1380   0.506   2.214   5.397
  400SOL    HW1 1381   0.489   2.295   5.341
  400SOL    HW2 1382   0.437   2.145   5.377
  401SOL     OW 1383   0.989   5.116   1.253
  401SOL    HW1 1384   1.086   5.110   1.277
  401SOL    HW2 1385   0.945   5.030   1.276
  402SOL     OW 1386   2.316   1.177   5.552
  402SOL    HW1 1387   2.244   1.213   5.492
  402SOL    HW2 1388   2.281   1.097   5.600
  403SOL     OW 1389   3.483   3.612   4.193
  403SOL    HW1 1390   3.424   3.555   4.252
  403SOL    HW2 1391   3.429   3.687   4.156
  404SOL     OW 1392   4.760   4.345   2.098
  404SOL    HW1 1393   4.851   4.347   2.057
  404SOL    HW2 1394   4.765   4.293   2.184
  405SOL     OW 1395   2.328   2.454   4.871
  405SOL    HW1 1396   2.360   2.373   4.918
  405SOL    HW2 1397   2.234   2.473   4.899
  406SOL     OW 1398   2.587   1.774   2.561
  406SOL    HW1 1399   2.524   1.725   2.621
  406SOL    HW2 1400   2.671   1.794   2.612
  407SOL     OW 1401   2.387   0.329   1.152
  407SOL    HW1 1402   2.422   0.414   1.113
  407SOL    HW2 1403   2.294   0.313   1.117
  408SOL     OW 1404   3.126   4.652   4.221
  408SOL    HW1 1405   3.123   4.685   4.127
  408SOL    HW2 1406   3.081   4.563   4.226
  409SOL     OW 1407   3.669   4.126   0.365
  409SOL    HW1 1408   3.608   4.151   0.290
  409SOL    HW2 1409   3.648   4.183   0.444
  410SOL     OW 1410   1.239   4.436   3.809
  410SOL    HW1 1411   1.170   4.365   3.818
  410SOL    HW2 1412   1.329   4.398   3.831
  411SOL     OW 1413   3.083   0.545   1.964
  411SOL    HW1 1414   2.996   0.499   1.945
  411SOL    HW2 1415   3.082   0.635   1.921
  412SOL     OW 1416   5.134   1.809   3.910
  412SOL    HW1 1417   5.079   1.892   3.895
  412SOL    HW2 1418   5.169   1.777   3.822
  413SOL     OW 1419   0.522   0.900   2.966
  413SOL    HW1 1420   0.620   0.912   2.978
  413SOL    HW2 1421   0.485   0.980   2.920
  414SOL     OW 1422   4.646   0.693   5.473
  414SOL    HW1 1423   4.614   0.670   5.565
  414SOL    HW2 1424   4.639   0.792   5.460
  415SOL     OW 1425   1.710   4.631   2.173
  415SOL    HW1 1426   1.644   4.604   2.103
  415SOL    HW2 1427   1.663   4.640   2.261
  416SOL     OW 1428   3.802   2.627   4.668
  416SOL    HW1 1429   3.890   2.617   4.621
  416SOL    HW2 1430   3.740   2.555   4.638
  417SOL     OW 1431   3.889   2.722   2.400
  417SOL    HW1 1432   3.939   2.809   2.394
  417SOL    HW2 1433   3.812   2.724   2.336
  418SOL     OW 1434   3.915   4.498   0.718
  418SOL    HW1 1435   3.905   4.410   0.764
  418SOL    HW2 1436   3.892   4.571   0.783
  419SOL     OW 1437   2.588   4.369   1.102
  419SOL    HW1 1438   2.506   4.377   1.159
  419SOL    HW2 1439   2.621   4.461   1.079
  420SOL     OW 1440   2.327   3.944   5.262
  420SOL    HW1 1441   2.244   4.000   5.267
  420SOL    HW2 1442   2.304   3.850   5.288
  421SOL     OW 1443   4.484   2.842   3.244
  421SOL    HW1 1444   4.392   2.818   3.211
  421SOL    HW2 1445   4.476   2.898   3.326
  422SOL     OW 1446   4.808   1.350   4.769
  422SOL    HW1 1447   4.779   1.308   4.682
  422SOL    HW2 1448   4.847   1.440   4.751
  423SOL     OW 1449   5.054   5.596   4.922
  423SOL    HW1 1450   5.134   5.595   4.862
  423SOL    HW2 1451   4.980   5.546   4.878
  424SOL     OW 1452   0.317   2.007   4.232
  424SOL    HW1 1453   0.275   2.078   4.176
  424SOL    HW2 1454   0.353   1.935   4.172
  425SOL     OW 1455   2.919   2.061   0.830
  425SOL    HW1 1456   2.927   2.100   0.739
  425SOL    HW2 1457   2.920   1.961   0.823
  426SOL     OW 1458   2.934   4.005   2.496
  426SOL    HW1 1459   2.937   3.926   2.557
  426SOL    HW2 1460   2.898   4.084   2.547
  427SOL     OW 1461   4.411   5.569   1.152
  427SOL    HW1 1462   4.341   5.499   1.158
  427SOL    HW2 1463   4.459   5.577   1.239
  428SOL     OW 1464   4.818   0.495   0.929
  428SOL    HW1 1465   4.729   0.521   0.892
  428SOL    HW2 1466   4.887   0.559   0.895
  429SOL     OW 1467   3.602   1.284   5.570
  429SOL    HW1 1468   3.550   1.200   5.553
  429SOL    HW2 1469   3.591   1.346   5.492
  430SOL     OW 1470   0.695   1.214   3.715
  430SOL    HW1 1471   0.732   1.262   3.794
  430SOL    HW2 1472   0.654   1.128   3.745
  431SOL     OW 1473   3.228   2.983   0.148
  431SOL    HW1 1474   3.289   2.921   0.197
  431SOL    HW2 1475   3.135   2.948   0.153
  432SOL     OW 1476   5.096   4.108   4.791
  432SOL    HW1 1477   5.025   4.164   4.748
  432SOL    HW2 1478   5.182   4.120   4.741
  433SOL     OW 1479   4.427   5.023   5.137
  433SOL    HW1 1480   4.489   5.073   5.078
  433SOL    HW2 1481   4.401   4.937   5.093
  434SOL     OW 1482   2.141   3.411   4.679
  434SOL    HW1 1483   2.207   3.358   4.626
  434SOL    HW2 1484   2.101   3.352   4.750
  435SOL     OW 1485   1.862   0.785   3.959
  435SOL    HW1 1486   1.827   0.849   4.028
  435SOL    HW2 1487   1.939   0.734   3.997
  436SOL     OW 1488   4.893   5.037   2.673
  436SOL    HW1 1489   4.815   5.010   2.617
  436SOL    HW2 1490   4.926   5.127   2.644
  437SOL     OW 1491   2.256   2.114   3.613
  437SOL    HW1 1492   2.308   2.185   3.565
  437SOL    HW2 1493   2.296   2.025   3.593
  438SOL     OW 1494   3.281   2.026   3.311
  438SOL    HW1 1495   3.378   2.003   3.308
  438SOL    HW2 1496   3.271   2.126   3.317
  439SOL     OW 1497   4.435   4.921   4.804
  439SOL    HW1 1498   4.354   4.981   4.806
  439SOL    HW2 1499   4.422   4.851   4.735
  440SOL     OW 1500   3.976   0.457   5.207
  440SOL    HW1 1501   3.996   0.386   5.138
  440SOL    HW2 1502   3.994   0.419   5.298
  441SOL     OW 1503   3.084   2.630   3.863
  441SOL    HW1 1504   3.075   2.701   3.933
  441SOL    HW2 1505   3.014   2.560   3.878
  442SOL     OW 1506   4.667   1.968   0.931
  442SOL    HW1 1507   4.602   2.014   0.992
  442SOL    HW2 1508   4.723   1.905   0.983
  443SOL     OW 1509   1.928   5.419   3.499
  443SOL    HW1 1510   1.909   5.517   3.498
  443SOL    HW2 1511   2.027   5.404   3.492
  444SOL     OW 1512   4.322   3.888   3.346
  444SOL    HW1 1513   4.262   3.934   3.411
  444SOL    HW2 1514   4.367   3.811   3.391
  445SOL     OW 1515   1.137   4.015   4.321
  445SOL    HW1 1516   1.037   4.017   4.326
  445SOL    HW2 1517   1.169   3.924   4.348
  446SOL     OW 1518   4.647   2.338   2.642
  446SOL    HW1 1519   4.600   2.331   2.554
  446SOL    HW2 1520   4.720   2.269   2.646
  447SOL     OW 1521   1.285   2.370   5.489
  447SOL    HW1 1522   1.245   2.296   5.543
  447SOL    HW2 1523   1.284   2.454   5.543
  448SOL     OW 1524   5.223   3.114   4.832
  448SOL    HW1 1525   5.165   3.187   4.794
  448SOL    HW2 1526   5.312   3.116   4.786
  449SOL     OW 1527   3.560   1.249   1.590
  449SOL    HW1 1528   3.613   1.277   1.509
  449SOL    HW2 1529   3.463   1.267   1.574
  450SOL     OW 1530   1.995   5.436   2.467
  450SOL    HW1 1531   1.980   5.483   2.380
  450SOL    HW2 1532   1.910   5.392   2.495
  451SOL     OW 1533   2.248   1.488   5.413
  451SOL    HW1 1534   2.283   1.581   5.409
  451SOL    HW2 1535   2.196   1.476   5.497
  452SOL     OW 1536   1.682   4.925   5.491
  452SOL    HW1 1537   1.777   4.956   5.502
  452SOL    HW2 1538   1.668   4.842   5.545
  453SOL     OW 1539   1.661   3.400   4.702
  453SOL    HW1 1540   1.608   3.456   4.639
  453SOL    HW2 1541   1.608   3.388   4.787
  454SOL     OW 1542   5.166   5.299   4.809
  454SOL    HW1 1543   5.230   5.223   4.823
  454SOL    HW2 1544   5.170   5.360   4.888
  455SOL     OW 1545   1.187   2.484   4.337
  455SOL    HW1 1546   1.091   2.461   4.352
  455SOL    HW2 1547   1.243   2.402   4.351
  456SOL     OW 1548   5.193   4.408   3.344
  456SOL    HW1 1549   5.252   4.411   3.263
  456SOL    HW2 1550   5.146   4.496   3.353
  457SOL     OW 1551   0.833   3.463   5.168
  457SOL    HW1 1552   0.822   3.507   5.258
  457SOL    HW2 1553   0.808   3.529   5.097
  458SOL     OW 1554   3.134   2.784   1.900
  458SOL    HW1 1555   3.182   2.700   1.874
  458SOL    HW2 1556   3.045   2.786   1.855
  459SOL     OW 1557   0.344   4.963   5.351
  459SOL    HW1 1558   0.318   4.907   5.430
  459SOL    HW2 1559   0.365   4.903   5.274
  460SOL     OW 1560   5.308   2.713   2.871
  460SOL    HW1 1561   5.212   2.697   2.849
  460SOL    HW2 1562   5.339   2.796   2.825
  461SOL     OW 1563   0.322   2.608   1.762
  461SOL    HW1 1564   0.305   2.612   1.860
  461SOL    HW2 1565   0.241   2.571   1.716
  462SOL     OW 1566   2.397   2.288   2.442
  462SOL    HW1 1567   2.455   2.206   2.449
  462SOL    HW2 1568   2.454   2.366   2.417
  463SOL     OW 1569   4.140   0.565   4.011
  463SOL    HW1 1570   4.218   0.523   3.964
  463SOL    HW2 1571   4.169   0.600   4.099
  464SOL     OW 1572   1.058   5.210   1.549
  464SOL    HW1 1573   1.004   5.203   1.632
  464SOL    HW2 1574   1.012   5.272   1.485
  465SOL     OW 1575   2.163   1.499   0.806
  465SOL    HW1 1576   2.257   1.465   0.797
  465SOL    HW2 1577   2.100   1.422   0.814
  466SOL     OW 1578   3.426   2.832   2.721
  466SOL    HW1 1579   3.405   2.927   2.701
  466SOL    HW2 1580   3.384   2.807   2.808
  467SOL     OW 1581   4.723   4.104   4.478
  467SOL    HW1 1582   4.705   4.014   4.439
  467SOL    HW2 1583   4.653   4.168   4.446
  468SOL     OW 1584   0.790   1.961   2.537
  468SOL    HW1 1585   0.819   2.043   2.488
  468SOL    HW2 1586   0.870   1.917   2.578
  469SOL     OW 1587   1.279   4.565   2.077
  469SOL    HW1 1588   1.287   4.664   2.064
  469SOL    HW2 1589   1.183   4.541   2.085
  470SOL     OW 1590   3.503   5.398   4.818
  470SOL    HW1 1591   3.541   5.321   4.869
  470SOL    HW2 1592   3.492   5.476   4.879
  471SOL     OW 1593   1.854   5.527   1.068
  471SOL    HW1 1594   1.763   5.568   1.071
  471SOL    HW2 1595   1.845   5.428   1.072
  472SOL     OW 1596   2.218   1.850   5.602
  472SOL    HW1 1597   2.137   1.890   5.644
  472SOL    HW2 1598   2.277   1.923   5.568
  473SOL     OW 1599   5.010   2.485   1.127
  473SOL    HW1 1600   5.020   2.537   1.042
  473SOL    HW2 1601   4.937   2.524   1.182
  474SOL     OW 1602   3.580   4.887   0.485
  474SOL    HW1 1603   3.557   4.795   0.453
  474SOL    HW2 1604   3.542   4.955   0.422
  475SOL     OW 1605   1.890   0.257   4.566
  475SOL    HW1 1606   1.852   0.307   4.488
  475SOL    HW2 1607   1.876   0.159   4.553
  476SOL     OW 1608   5.180   1.711   4.232
  476SOL    HW1 1609   5.111   1.640   4.227
  476SOL    HW2 1610   5.197   1.746   4.140
  477SOL     OW 1611   2.324   2.070   4.560
  477SOL    HW1 1612   2.271   2.022   4.490
  477SOL    HW2 1613   2.328   2.167   4.538
  478SOL     OW 1614   1.161   1.310   2.434
  478SOL    HW1 1615   1.114   1.268   2.357
  478SOL    HW2 1616   1.172   1.408   2.416
  479SOL     OW 1617   2.998   1.075   3.823
  479SOL    HW1 1618   2.902   1.083   3.850
  479SOL    HW2 1619   3.014   0.984   3.785
  480SOL     OW 1620   3.720   3.761   0.863
  480SOL    HW1 1621   3.630   3.720   0.849
  480SOL    HW2 1622   3.763   3.720   0.944
  481SOL     OW 1623   1.577   4.535   5.587
  481SOL    HW1 1624   1.548   4.501   5.498
  481SOL    HW2 1625   1.664   4.583   5.577
  482SOL     OW 1626   5.059   4.098   1.935
  482SOL    HW1 1627   5.030   4.128   2.027
  482SOL    HW2 1628   4.988   4.040   1.896
  483SOL     OW 1629   2.383   1.760   3.959
  483SOL    HW1 1630   2.465   1.785   4.011
  483SOL    HW2 1631   2.344   1.843   3.918
  484SOL     OW 1632   5.559   3.426   2.614
  484SOL    HW1 1633   5.506   3.346   2.585
  484SOL    HW2 1634   5.591   3.413   2.708
  485SOL     OW 1635   5.088   1.673   0.262
  485SOL    HW1 1636   5.129   1.584   0.283
  485SOL    HW2 1637   4.994   1.659   0.230
  486SOL     OW 1638   4.461   3.352   5.476
  486SOL    HW1 1639   4.387   3.293   5.443
  486SOL    HW2 1640   4.545   3.331   5.426
  487SOL     OW 1641   4.374   3.332   3.842
  487SOL    HW1 1642   4.474   3.334   3.836
  487SOL    HW2 1643   4.344   3.239   3.861
  488SOL     OW 1644   4.493   4.088   4.189
  488SOL    HW1 1645   4.566   4.127   4.133
  488SOL    HW2 1646   4.417   4.061   4.131
  489SOL     OW 1647   2.662   2.156   3.479
  489SOL    HW1 1648   2.721   2.082   3.511
  489SOL    HW2 1649   2.593   2.119   3.416
  490SOL     OW 1650   1.215   4.706   3.944
  490SOL    HW1 1651   1.140   4.650   3.908
  490SOL    HW2 1652   1.180   4.768   4.013
  491SOL     OW 1653   1.736   5.110   4.839
  491SOL    HW1 1654   1.830   5.141   4.833
  491SOL    HW2 1655   1.682   5.152   4.766
  492SOL     OW 1656   4.510   4.559   2.445
  492SOL    HW1 1657   4.463   4.502   2.377
  492SOL    HW2 1658   4.547   4.501   2.517
  493SOL     OW 1659   1.794   2.512   3.865
  493SOL    HW1 1660   1.729   2.483   3.795
  493SOL    HW2 1661   1.762   2.598   3.905
  494SOL     OW 1662   3.188   5.222   0.369
  494SOL    HW1 1663   3.201   5.232   0.270
  494SOL    HW2 1664   3.092   5.200   0.387
  495SOL     OW 1665   1.563   4.466   0.808
  495SOL    HW1 1666   1.464   4.476   0.815
  495SOL    HW2 1667   1.593   4.385   0.858
  496SOL     OW 1668   1.526   0.899   2.834
  496SOL    HW1 1669   1.466   0.819   2.825
  496SOL    HW2 1670   1.617   0.869   2.860
  497SOL     OW 1671   4.558   4.922   2.928
  497SOL    HW1 1672   4.601   4.834   2.913
  497SOL    HW2 1673   4.623   4.995   2.908
  498SOL     OW 1674   4.549   0.579   1.901
  498SOL    HW1 1675   4.578   0.606   1.809
  498SOL    HW2 1676   4.555   0.480   1.909
  499SOL     OW 1677   2.212   3.338   4.056
  499SOL    HW1 1678   2.121   3.302   4.036
  499SOL    HW2 1679   2.226   3.337   4.155
  500SOL     OW 1680   2.035   3.063   4.600
  500SOL    HW1 1681   2.043   3.163   4.604
  500SOL    HW2 1682   2.124   3.022   4.618
  501SOL     OW 1683   2.428   3.061   0.409
  501SOL    HW1 1684   2.481   3.108   0.479
  501SOL    HW2 1685   2.347   3.020   0.451
  502SOL     OW 1686   3.057   1.157   4.739
  502SOL    HW1 1687   3.060   1.078   4.677
  502SOL    HW2 1688   3.148   1.200   4.741
  503SOL     OW 1689   5.205   1.909   5.111
  503SOL    HW1 1690   5.129   1.973   5.112
  503SOL    HW2 1691   5.289   1.956   5.139
  504SOL     OW 1692   5.079   0.657   5.315
  504SOL    HW1 1693   5.003   0.659   5.380
  504SOL    HW2 1694   5.081   0.569   5.269
  505SOL     OW 1695   2.742   3.586   0.312
  505SOL    HW1 1696   2.767   3.508   0.254
  505SOL    HW2 1697   2.659   3.563   0.364
  506SOL     OW 1698   2.300   1.020   4.830
  506SOL    HW1 1699   2.325   0.925   4.850
  506SOL    HW2 1700   2.206   1.023   4.797
  507SOL     OW 1701   2.522   3.093   0.663
  507SOL    HW1 1702   2.471   3.060   0.742
  507SOL    HW2 1703   2.620   3.087   0.682
  508SOL     OW 1704   2.497   1.002   4.073
  508SOL    HW1 1705   2.436   1.080   4.084
  508SOL    HW2 1706   2.591   1.034   4.071
  509SOL     OW 1707   2.120   3.605   0.842
  509SOL    HW1 1708   2.046   3.539   0.844
  509SOL    HW2 1709   2.083   3.697   0.859
  510SOL     OW 1710   3.981   4.283   3.992
  510SOL    HW1 1711   3.897   4.229   3.984
  510SOL    HW2 1712   4.059   4.222   4.001
  511SOL     OW 1713   3.574   5.533   1.764
  511SOL    HW1 1714   3.536   5.624   1.775
  511SOL    HW2 1715   3.500   5.469   1.743
  512SOL     OW 1716   1.002   4.180   4.662
  512SOL    HW1 1717   0.935   4.244   4.699
  512SOL    HW2 1718   1.092   4.223   4.661
  513SOL     OW 1719   1.281   5.613   4.870
  513SOL    HW1 1720   1.367   5.650   4.834
  513SOL    HW2 1721   1.289   5.514   4.879
  514SOL     OW 1722   2.868   0.645   4.244
  514SOL    HW1 1723   2.840   0.637   4.148
  514SOL    HW2 1724   2.790   0.672   4.299
  515SOL     OW 1725   0.522   1.824   4.549
  515SOL    HW1 1726   0.615   1.812   4.514
  515SOL    HW2 1727   0.497   1.743   4.603
  516SOL     OW 1728   4.389   2.353   2.043
  516SOL    HW1 1729   4.314   2.287   2.037
  516SOL    HW2 1730   4.370   2.430   1.982
  517SOL     OW 1731   5.016   4.970   1.953
  517SOL    HW1 1732   4.936   4.988   1.896
  517SOL    HW2 1733   5.026   5.044   2.019
  518SOL     OW 1734   4.383   4.674   2.148
  518SOL    HW1 1735   4.364   4.764   2.110
  518SOL    HW2 1736   4.406   4.684   2.245
  519SOL     OW 1737   1.640   5.339   4.602
  519SOL    HW1 1738   1.569   5.409   4.593
  519SOL    HW2 1739   1.723   5.371   4.556
  520SOL     OW 1740   3.864   4.707   1.016
  520SOL    HW1 1741   3.832   4.678   1.106
  520SOL    HW2 1742   3.900   4.800   1.023
  521SOL     OW 1743   5.373   0.848   5.592
  521SOL    HW1 1744   5.465   0.853   5.555
  521SOL    HW2 1745   5.357   0.756   5.629
  522SOL     OW 1746   2.875   2.942   2.428
  522SOL    HW1 1747   2.964   2.987   2.436
  522SOL    HW2 1748   2.825   2.981   2.351
  523SOL     OW 1749   0.746   3.020   4.366
  523SOL    HW1 1750   0.705   2.941   4.321
  523SOL    HW2 1751   0.674   3.077   4.406
  524SOL     OW 1752   3.533   3.347   3.429
  524SOL    HW1 1753   3.578   3.415   3.487
  524SOL    HW2 1754   3.602   3.288   3.388
  525SOL     OW 1755   1.916   0.247   2.683
  525SOL    HW1 1756   1.958   0.157   2.689
  525SOL    HW2 1757   1.818   0.239   2.700
  526SOL     OW 1758   4.583   4.636   0.166
  526SOL    HW1 1759   4.564   4.539   0.180
  526SOL    HW2 1760   4.622   4.675   0.249
  527SOL     OW 1761   0.708   3.286   2.624
  527SOL    HW1 1762   0.638   3.219   2.648
  527SOL    HW2 1763   0.770   3.299   2.701
  528SOL     OW 1764   2.371   2.025   5.254
  528SOL    HW1 1765   2.332   2.108   5.292
  528SOL    HW2 1766   2.470   2.038   5.242
  529SOL     OW 1767   4.812   0.172   5.484
  529SOL    HW1 1768   4.731   0.170   5.425
  529SOL    HW2 1769   4.785   0.201   5.576
  530SOL     OW 1770   1.671   3.395   0.717
  530SOL    HW1 1771   1.599   3.463   0.705
  530SOL    HW2 1772   1.629   3.305   0.726
  531SOL     OW 1773   1.757   0.457   2.411
  531SOL    HW1 1774   1.813   0.389   2.364
  531SOL    HW2 1775   1.726   0.420   2.498
  532SOL     OW 1776   4.222   1.217   4.936
  532SOL    HW1 1777   4.124   1.233   4.949
  532SOL    HW2 1778   4.262   1.296   4.892
  533SOL     OW 1779   1.972   1.304   1.531
  533SOL    HW1 1780   1.959   1.365   1.609
  533SOL    HW2 1781   1.891   1.246   1.522
  534SOL     OW 1782   4.810   0.299   1.231
  534SOL    HW1 1783   4.880   0.265   1.293
  534SOL    HW2 1784   4.853   0.333   1.147
  535SOL     OW 1785   4.154   4.696   5.171
  535SOL    HW1 1786   4.231   4.730   5.226
  535SOL    HW2 1787   4.111   4.620   5.219
  536SOL     OW 1788   2.971   0.609   0.545
  536SOL    HW1 1789   3.026   0.608   0.628
  536SOL    HW2 1790   3.031   0.593   0.466
  537SOL     OW 1791   0.935   2.799   4.499
  537SOL    HW1 1792   0.843   2.790   4.538
  537SOL    HW2 1793   0.942   2.889   4.455
  538SOL     OW 1794   3.750   2.091   3.229
  538SOL    HW1 1795   3.677   2.130   3.285
  538SOL    HW2 1796   3.711   2.057   3.144
  539SOL     OW 1797   3.242   5.510   1.505
  539SOL    HW1 1798   3.306   5.442   1.541
  539SOL    HW2 1799   3.231   5.495   1.407
  540SOL     OW 1800   4.842   4.264   5.189
  540SOL    HW1 1801   4.930   4.265   5.236
  540SOL    HW2 1802   4.796   4.352   5.201
  541SOL     OW 1803   3.255   3.790   4.976
  541SOL    HW1 1804   3.344   3.775   4.933
  541SOL    HW2 1805   3.215   3.701   4.999
  542SOL     OW 1806   4.032   5.044   3.871
  542SOL    HW1 1807   4.125   5.073   3.851
  542SOL    HW2 1808   4.034   4.961   3.926
  543SOL     OW 1809   3.792   2.584   5.032
  543SOL    HW1 1810   3.836   2.515   4.974
  543SOL    HW2 1811   3.824   2.675   5.005
  544SOL     OW 1812   5.209   2.278   5.566
  544SOL    HW1 1813   5.245   2.235   5.649
  544SOL    HW2 1814   5.286   2.302   5.506
  545SOL     OW 1815   2.377   2.805   4.864
  545SOL    HW1 1816   2.468   2.812   4.906
  545SOL    HW2 1817   2.360   2.710   4.839
  546SOL     OW 1818   1.166   2.551   3.736
  546SOL    HW1 1819   1.246   2.604   3.764
  546SOL    HW2 1820   1.169   2.461   3.780
  547SOL     OW 1821   1.097   5.589   5.096
  547SOL    HW1 1822   1.159   5.606   5.173
  547SOL    HW2 1823   1.137   5.628   5.013
  548SOL     OW 1824   3.784   1.502   2.874
  548SOL    HW1 1825   3.768   1.460   2.963
  548SOL    HW2 1826   3.731   1.453   2.804
  549SOL     OW 1827   1.827   0.924   2.496
  549SOL    HW1 1828   1.865   1.016   2.507
  549SOL    HW2 1829   1.728   0.931   2.481
  550SOL     OW 1830   4.300   1.419   0.464
  550SOL    HW1 1831   4.372   1.446   0.528
  550SOL    HW2 1832   4.252   1.339   0.501
  551SOL     OW 1833   2.172   4.895   1.201
  551SOL    HW1 1834   2.206   4.830   1.133
  551SOL    HW2 1835   2.105   4.849   1.260
  552SOL     OW 1836   2.324   5.275   1.542
  552SOL    HW1 1837   2.396   5.206   1.534
  552SOL    HW2 1838   2.363   5.359   1.581
  553SOL     OW 1839   1.187   0.298   3.884
  553SOL    HW1 1840   1.230   0.272   3.797
  553SOL    HW2 1841   1.193   0.397   3.894
  554SOL     OW 1842   0.474   5.238   0.522
  554SOL    HW1 1843   0.395   5.185   0.551
  554SOL    HW2 1844   0.532   5.257   0.602
  555SOL     OW 1845   1.370   4.765   5.573
  555SOL    HW1 1846   1.416   4.794   5.658
  555SOL    HW2 1847   1.315   4.683   5.592
  556SOL     OW 1848   4.736   4.511   4.915
  556SOL    HW1 1849   4.799   4.453   4.966
  556SOL    HW2 1850   4.780   4.542   4.831
  557SOL     OW 1851   0.445   5.518   0.869
  557SOL    HW1 1852   0.417   5.608   0.904
  557SOL    HW2 1853   0.544   5.515   0.863
  558SOL     OW 1854   4.117   4.606   4.230
  558SOL    HW1 1855   4.052   4.550   4.178
  558SOL    HW2 1856   4.106   4.702   4.202
  559SOL     OW 1857   1.694   3.849   4.836
  559SOL    HW1 1858   1.719   3.772   4.895
  559SOL    HW2 1859   1.752   3.927   4.858
  560SOL     OW 1860   2.146   1.971   2.956
  560SOL    HW1 1861   2.135   1.878   2.921
  560SOL    HW2 1862   2.242   1.987   2.979
  561SOL     OW 1863   1.485   5.487   3.069
  561SOL    HW1 1864   1.556   5.492   2.999
  561SOL    HW2 1865   1.512   5.544   3.147
  562SOL     OW 1866   0.830   1.750   4.779
  562SOL    HW1 1867   0.929   1.735   4.789
  562SOL    HW2 1868   0.787   1.668   4.741
  563SOL     OW 1869   2.869   4.820   5.648
  563SOL    HW1 1870   2.943   4.776   5.598
  563SOL    HW2 1871   2.790   4.758   5.650
  564SOL     OW 1872   4.933   2.620   1.381
  564SOL    HW1 1873   4.977   2.570   1.455
  564SOL    HW2 1874   4.958   2.717   1.388
  565SOL     OW 1875   2.923   1.618   3.445
  565SOL    HW1 1876   2.908   1.581   3.537
  565SOL    HW2 1877   2.932   1.542   3.381
  566SOL     OW 1878   5.458   2.166   4.191
  566SOL    HW1 1879   5.380   2.225   4.171
  566SOL    HW2 1880   5.542   2.218   4.179
  567SOL     OW 1881   3.262   4.984   2.722
  567SOL    HW1 1882   3.248   4.950   2.815
  567SOL    HW2 1883   3.309   4.914   2.668
  568SOL     OW 1884   3.005   1.708   1.356
  568SOL    HW1 1885   3.094   1.753   1.359
  568SOL    HW2 1886   3.011   1.620   1.404
  569SOL     OW 1887   1.084   3.597   4.372
  569SOL    HW1 1888   1.141   3.587   4.453
  569SOL    HW2 1889   1.031   3.682   4.379
  570SOL     OW 1890   3.719   0.531   4.388
  570SOL    HW1 1891   3.663   0.603   4.348
  570SOL    HW2 1892   3.773   0.487   4.316
  571SOL     OW 1893   0.556   4.139   4.505
  571SOL    HW1 1894   0.652   4.111   4.503
  571SOL    HW2 1895   0.542   4.213   4.439
  572SOL     OW 1896   2.221   4.888   0.783
  572SOL    HW1 1897   2.177   4.952   0.845
  572SOL    HW2 1898   2.182   4.797   0.796
  573SOL     OW 1899   4.474   0.871   3.675
  573SOL    HW1 1900   4.461   0.893   3.771
  573SOL    HW2 1901   4.533   0.939   3.632
  574SOL     OW 1902   4.686   2.359   5.495
  574SOL    HW1 1903   4.695   2.263   5.521
  574SOL    HW2 1904   4.609   2.369   5.432
  575SOL     OW 1905   3.505   2.292   4.238
  575SOL    HW1 1906   3.429   2.226   4.235
  575SOL    HW2 1907   3.489   2.357   4.312
  576SOL     OW 1908   1.387   4.449   4.498
  576SOL    HW1 1909   1.466   4.404   4.457
  576SOL    HW2 1910   1.309   4.386   4.497
  577SOL     OW 1911   4.515   2.270   3.515
  577SOL    HW1 1912   4.450   2.347   3.519
  577SOL    HW2 1913   4.481   2.202   3.450
  578SOL     OW 1914   3.532   0.451   3.516
  578SOL    HW1 1915   3.609   0.465   3.578
  578SOL    HW2 1916   3.491   0.362   3.533
  579SOL     OW 1917   4.339   4.611   3.010
  579SOL    HW1 1918   4.240   4.627   3.004
  579SOL    HW2 1919   4.382   4.690   3.052
  580SOL     OW 1920   4.987   2.528   4.356
  580SOL    HW1 1921   5.000   2.464   4.432
  580SOL    HW2 1922   5.076   2.560   4.325
  581SOL     OW 1923   4.767   3.199   1.995
  581SOL    HW1 1924   4.862   3.183   2.021
  581SOL    HW2 1925   4.707   3.144   2.053
  582SOL     OW 1926   1.954   1.910   3.313
  582SOL    HW1 1927   1.873   1.897   3.256
  582SOL    HW2 1928   2.033   1.866   3.270
  583SOL     OW 1929   3.205   3.079   4.648
  583SOL    HW1 1930   3.180   2.998   4.596
  583SOL    HW2 1931   3.126   3.108   4.703
  584SOL     OW 1932   2.861   3.945   3.960
  584SOL    HW1 1933   2.844   4.043   3.952
  584SOL    HW2 1934   2.780   3.894   3.931
  585SOL     OW 1935   2.993   1.174   3.469
  585SOL    HW1 1936   3.050   1.199   3.391
  585SOL    HW2 1937   3.051   1.148   3.546
  586SOL     OW 1938   1.283   0.674   1.008
  586SOL    HW1 1939   1.331   0.729   1.076
  586SOL    HW2 1940   1.199   0.721   0.981
  587SOL     OW 1941   3.784   2.342   0.287
  587SOL    HW1 1942   3.811   2.356   0.382
  587SOL    HW2 1943   3.856   2.376   0.226
  588SOL     OW 1944   4.115   2.432   2.106
  588SOL    HW1 1945   4.188   2.428   2.174
  588SOL    HW2 1946   4.029   2.454   2.151
  589SOL     OW 1947   2.857   3.693   2.024
  589SOL    HW1 1948   2.913   3.768   2.057
  589SOL    HW2 1949   2.760   3.717   2.034
  590SOL     OW 1950   2.162   3.708   5.350
  590SOL    HW1 1951   2.102   3.720   5.271
  590SOL    HW2 1952   2.108   3.680   5.429
  591SOL     OW 1953   2.172   3.486   3.761
  591SOL    HW1 1954   2.087   3.445   3.727
  591SOL    HW2 1955   2.249   3.453   3.706
  592SOL     OW 1956   4.228   4.325   4.137
  592SOL    HW1 1957   4.276   4.408   4.164
  592SOL    HW2 1958   4.132   4.332   4.164
  593SOL     OW 1959   1.614   5.163   2.964
  593SOL    HW1 1960   1.517   5.180   2.981
  593SOL    HW2 1961   1.655   5.123   3.045
  594SOL     OW 1962   1.571   4.605   4.712
  594SOL    HW1 1963   1.488   4.593   4.657
  594SOL    HW2 1964   1.650   4.606   4.651
  595SOL     OW 1965   0.702   5.077   4.436
  595SOL    HW1 1966   0.776   5.055   4.500
  595SOL    HW2 1967   0.725   5.163   4.389
  596SOL     OW 1968   1.108   4.546   4.299
  596SOL    HW1 1969   1.068   4.455   4.312
  596SOL    HW2 1970   1.204   4.537   4.273
  597SOL     OW 1971   2.498   1.619   1.784
  597SOL    HW1 1972   2.561   1.610   1.707
  597SOL    HW2 1973   2.421   1.678   1.757
  598SOL     OW 1974   3.500   5.401   4.507
  598SOL    HW1 1975   3.551   5.475   4.552
  598SOL    HW2 1976   3.497   5.322   4.568
  599SOL     OW 1977   1.400   1.779   5.166
  599SOL    HW1 1978   1.420   1.685   5.139
  599SOL    HW2 1979   1.455   1.841   5.110
  600SOL     OW 1980   0.817   0.896   3.462
  600SOL    HW1 1981   0.855   0.916   3.552
  600SOL    HW2 1982   0.718   0.883   3.469
  601SOL     OW 1983   2.837   2.806   3.594
  601SOL    HW1 1984   2.848   2.899   3.559
  601SOL    HW2 1985   2.927   2.764   3.604
  602SOL     OW 1986   1.138   4.189   5.188
  602SOL    HW1 1987   1.169   4.097   5.162
  602SOL    HW2 1988   1.042   4.199   5.162
  603SOL     OW 1989   3.613   3.070   1.079
  603SOL    HW1 1990   3.663   3.011   1.016
  603SOL    HW2 1991   3.651   3.163   1.073
  604SOL     OW 1992   4.468   1.511   5.261
  604SOL    HW1 1993   4.450   1.602   5.298
  604SOL    HW2 1994   4.381   1.461   5.253
  605SOL     OW 1995   1.848   4.362   4.991
  605SOL    HW1 1996   1.765   4.415   4.976
  605SOL    HW2 1997   1.918   4.390   4.925
  606SOL     OW 1998   1.645   5.033   3.785
  606SOL    HW1 1999   1.583   5.088   3.841
  606SOL    HW2 2000   1.630   4.936   3.805
  607SOL     OW 2001   1.025   0.514   0.465
  607SOL    HW1 2002   1.093   0.484   0.532
  607SOL    HW2 2003   1.058   0.492   0.373
  608SOL     OW 2004   1.605   3.046   0.295
  608SOL    HW1 2005   1.705   3.047   0.302
  608SOL    HW2 2006   1.579   2.992   0.215
  609SOL     OW 2007   1.278   4.837   4.448
  609SOL    HW1 2008   1.263   4.776   4.526
  609SOL    HW2 2009   1.363   4.811   4.402
  610SOL     OW 2010   4.342   4.307   1.832
  610SOL    HW1 2011   4.414   4.351   1.778
  610SOL    HW2 2012   4.376   4.219   1.865
  611SOL     OW 2013   5.332   1.628   1.459
  611SOL    HW1 2014   5.246   1.584   1.434
  611SOL    HW2 2015   5.319   1.727   1.461
  612SOL     OW 2016   1.809   1.783   3.529
  612SOL    HW1 2017   1.783   1.843   3.605
  612SOL    HW2 2018   1.888   1.823   3.483
  613SOL     OW 2019   3.316   1.097   1.749
  613SOL    HW1 2020   3.305   1.194   1.727
  613SOL    HW2 2021   3.365   1.089   1.836
  614SOL     OW 2022   5.093   1.767   4.578
  614SOL    HW1 2023   5.092   1.755   4.479
  614SOL    HW2 2024   5.132   1.685   4.620
  615SOL     OW 2025   0.606   2.636   2.753
  615SOL    HW1 2026   0.623   2.538   2.736
  615SOL    HW2 2027   0.509   2.655   2.739
  616SOL     OW 2028   2.911   2.733   3.180
  616SOL    HW1 2029   2.873   2.676   3.253
  616SOL    HW2 2030   2.857   2.816   3.171
  617SOL     OW 2031   2.363   4.272   1.389
  617SOL    HW1 2032   2.431   4.212   1.431
  617SOL    HW2 2033   2.404   4.361   1.369
  618SOL     OW 2034   5.143   5.566   3.111
  618SOL    HW1 2035   5.072   5.500   3.137
  618SOL    HW2 2036   5.233   5.527   3.130
  619SOL     OW 2037   3.935   1.946   0.904
  619SOL    HW1 2038   3.932   1.948   0.805
  619SOL    HW2 2039   3.910   1.854   0.936
  620SOL     OW 2040   2.164   2.691   2.240
  620SOL    HW1 2041   2.162   2.596   2.270
  620SOL    HW2 2042   2.255   2.729   2.256
  621SOL     OW 2043   2.665   1.793   0.477
  621SOL    HW1 2044   2.621   1.864   0.421
  621SOL    HW2 2045   2.596   1.727   0.506
  622SOL     OW 2046   0.536   4.036   5.369
  622SOL    HW1 2047   0.547   4.057   5.466
  622SOL    HW2 2048   0.489   3.949   5.359
  623SOL     OW 2049   1.186   5.649   1.735
  623SOL    HW1 2050   1.107   5.617   1.682
  623SOL    HW2 2051   1.215   5.576   1.797
  624SOL     OW 2052   3.780   4.714   4.693
  624SOL    HW1 2053   3.828   4.629   4.712
  624SOL    HW2 2054   3.789   4.775   4.772
  625SOL     OW 2055   1.126   3.684   5.141
  625SOL    HW1 2056   1.049   3.670   5.079
  625SOL    HW2 2057   1.174   3.597   5.154
  626SOL     OW 2058   1.543   3.852   5.556
  626SOL    HW1 2059   1.591   3.766   5.544
  626SOL    HW2 2060   1.608   3.928   5.550
  627SOL     OW 2061   2.049   4.944   0.258
  627SOL    HW1 2062   2.136   4.979   0.294
  627SOL    HW2 2063   1.991   5.021   0.234
  628SOL     OW 2064   1.377   1.225   4.710
  628SOL    HW1 2065   1.310   1.241   4.782
  628SOL    HW2 2066   1.341   1.155   4.648
  629SOL     OW 2067   2.922   3.819   0.246
  629SOL    HW1 2068   2.843   3.760   0.259
  629SOL    HW2 2069   2.977   3.819   0.329
  630SOL     OW 2070   0.234   4.178   1.029
  630SOL    HW1 2071   0.147   4.150   0.989
  630SOL    HW2 2072   0.302   4.105   1.013
  631SOL     OW 2073   2.277   3.665   1.553
  631SOL    HW1 2074   2.364   3.657   1.602
  631SOL    HW2 2075   2.245   3.760   1.557
  632SOL     OW 2076   2.121   3.133   2.817
  632SOL    HW1 2077   2.168   3.058   2.863
  632SOL    HW2 2078   2.074   3.099   2.736
  633SOL     OW 2079   3.961   3.421   5.091
  633SOL    HW1 2080   3.888   3.486   5.114
  633SOL    HW2 2081   3.933   3.329   5.121
  634SOL     OW 2082   2.104   3.269   1.895
  634SOL    HW1 2083   2.013   3.303   1.918
  634SOL    HW2 2084   2.161   3.346   1.866
  635SOL     OW 2085   2.647   3.269   2.061
  635SOL    HW1 2086   2.724   3.207   2.046
  635SOL    HW2 2087   2.563   3.215   2.067
  636SOL     OW 2088   0.929   3.042   0.291
  636SOL    HW1 2089   1.006   3.094   0.253
  636SOL    HW2 2090   0.845   3.093   0.275
  637SOL     OW 2091   4.525   5.138   3.342
  637SOL    HW1 2092   4.623   5.121   3.333
  637SOL    HW2 2093   4.479   5.053   3.369
  638SOL     OW 2094   5.197   4.667   0.183
  638SOL    HW1 2095   5.230   4.748   0.231
  638SOL    HW2 2096   5.275   4.608   0.161
  639SOL     OW 2097   1.405   2.921   0.817
  639SOL    HW1 2098   1.392   3.018   0.836
  639SOL    HW2 2099   1.326   2.869   0.851
  640SOL     OW 2100   1.851   4.933   5.028
  640SOL    HW1 2101   1.775   4.968   4.972
  640SOL    HW2 2102   1.935   4.937   4.974
  641SOL     OW 2103   2.171   2.456   1.999
  641SOL    HW1 2104   2.090   2.428   2.052
  641SOL    HW2 2105   2.237   2.498   2.061
  642SOL     OW 2106   5.059   3.156   3.657
  642SOL    HW1 2107   5.141   3.162   3.714
  642SOL    HW2 2108   5.032   3.248   3.629
  643SOL     OW 2109   2.238   4.760   1.937
  643SOL    HW1 2110   2.287   4.843   1.910
  643SOL    HW2 2111   2.284   4.720   2.016
  644SOL     OW 2112   4.258   3.191   1.980
  644SOL    HW1 2113   4.352   3.165   1.961
  644SOL    HW2 2114   4.199   3.111   1.968
  645SOL     OW 2115   0.559   2.035   2.121
  645SOL    HW1 2116   0.577   2.062   2.215
  645SOL    HW2 2117   0.487   1.966   2.120
  646SOL     OW 2118   4.876   4.745   0.652
  646SOL    HW1 2119   4.897   4.676   0.721
  646SOL    HW2 2120   4.958   4.762   0.597
  647SOL     OW 2121   5.618   0.524   1.320
  647SOL    HW1 2122   5.597   0.466   1.242
  647SOL    HW2 2123   5.558   0.604   1.319
  648SOL     OW 2124   5.058   0.346   5.411
  648SOL    HW1 2125   4.974   0.320   5.458
  648SOL    HW2 2126   5.119   0.267   5.405
  649SOL     OW 2127   2.740   4.553   3.278
  649SOL    HW1 2128   2.825   4.518   3.241
  649SOL    HW2 2129   2.664   4.496   3.247
  650SOL     OW 2130   0.494   4.900   5.095
  650SOL    HW1 2131   0.479   4.998   5.084
  650SOL    HW2 2132   0.592   4.881   5.091
  651SOL     OW 2133   4.165   4.042   0.118
  651SOL    HW1 2134   4.187   3.966   0.179
  651SOL    HW2 2135   4.182   4.128   0.165
  652SOL     OW 2136   5.035   5.024   4.435
  652SOL    HW1 2137   5.107   5.028   4.366
  652SOL    HW2 2138   5.074   5.041   4.525
  653SOL     OW 2139   3.974   2.423   2.359
  653SOL    HW1 2140   4.014   2.489   2.422
  653SOL    HW2 2141   3.877   2.444   2.346
  654SOL     OW 2142   3.746   1.575   3.387
  654SOL    HW1 2143   3.654   1.556   3.420
  654SOL    HW2 2144   3.749   1.564   3.287
  655SOL     OW 2145   2.482   2.981   0.911
  655SOL    HW1 2146   2.501   2.890   0.948
  655SOL    HW2 2147   2.533   3.049   0.964
  656SOL     OW 2148   1.386   0.795   4.848
  656SOL    HW1 2149   1.337   0.708   4.839
  656SOL    HW2 2150   1.482   0.781   4.826
  657SOL     OW 2151   4.425   3.458   2.621
  657SOL    HW1 2152   4.365   3.378   2.612
  657SOL    HW2 2153   4.377   3.539   2.588
  658SOL     OW 2154   1.455   3.122   4.839
  658SOL    HW1 2155   1.534   3.167   4.880
  658SOL    HW2 2156   1.485   3.042   4.787
  659SOL     OW 2157   3.800   2.260   3.998
  659SOL    HW1 2158   3.857   2.333   4.034
  659SOL    HW2 2159   3.707   2.269   4.034
  660SOL     OW 2160   0.262   4.361   1.316
  660SOL    HW1 2161   0.205   4.402   1.245
  660SOL    HW2 2162   0.227   4.271   1.338
  661SOL     OW 2163   3.060   3.411   0.258
  661SOL    HW1 2164   2.980   3.354   0.278
  661SOL    HW2 2165   3.037   3.507   0.274
  662SOL     OW 2166   0.464   2.376   5.173
  662SOL    HW1 2167   0.416   2.450   5.125
  662SOL    HW2 2168   0.555   2.365   5.132
  663SOL     OW 2169   2.254   5.049   3.704
  663SOL    HW1 2170   2.344   5.084   3.677
  663SOL    HW2 2171   2.194   5.126   3.725
  664SOL     OW 2172   3.880   4.374   5.097
  664SOL    HW1 2173   3.816   4.428   5.153
  664SOL    HW2 2174   3.966   4.365   5.147
  665SOL     OW 2175   1.512   3.045   4.567
  665SOL    HW1 2176   1.424   2.999   4.552
  665SOL    HW2 2177   1.498   3.144   4.564
  666SOL     OW 2178   0.780   5.191   1.717
  666SOL    HW1 2179   0.681   5.190   1.699
  666SOL    HW2 2180   0.809   5.100   1.744
  667SOL     OW 2181   4.628   1.952   5.446
  667SOL    HW1 2182   4.639   2.032   5.505
  667SOL    HW2 2183   4.709   1.895   5.452
  668SOL     OW 2184   3.533   3.886   4.418
  668SOL    HW1 2185   3.539   3.799   4.370
  668SOL    HW2 2186   3.540   3.871   4.517
  669SOL     OW 2187   1.368   5.405   5.237
  669SOL    HW1 2188   1.439   5.411   5.307
  669SOL    HW2 2189   1.278   5.416   5.281
  670SOL     OW 2190   0.977   0.433   3.488
  670SOL    HW1 2191   0.917   0.353   3.481
  670SOL    HW2 2192   0.920   0.515   3.494
  671SOL     OW 2193   1.419   3.578   2.502
  671SOL    HW1 2194   1.435   3.557   2.599
  671SOL    HW2 2195   1.444   3.673   2.485
  672SOL     OW 2196   3.865   1.244   1.603
  672SOL    HW1 2197   3.776   1.234   1.648
  672SOL    HW2 2198   3.925   1.170   1.634
  673SOL     OW 2199   3.806   5.113   2.767
  673SOL    HW1 2200   3.781   5.058   2.847
  673SOL    HW2 2201   3.831   5.205   2.796
  674SOL     OW 2202   3.279   5.598   5.141
  674SOL    HW1 2203   3.190   5.559   5.121
  674SOL    HW2 2204   3.339   5.527   5.176
  675SOL     OW 2205   3.344   2.861   3.337
  675SOL    HW1 2206   3.367   2.764   3.325
  675SOL    HW2 2207   3.342   2.881   3.435
  676SOL     OW 2208   4.116   3.145   0.534
  676SOL    HW1 2209   4.064   3.187   0.459
  676SOL    HW2 2210   4.212   3.140   0.507
  677SOL     OW 2211   1.515   0.436   4.691
  677SOL    HW1 2212   1.600   0.481   4.667
  677SOL    HW2 2213   1.477   0.391   4.610
  678SOL     OW 2214   0.160   1.335   0.928
  678SOL    HW1 2215   0.165   1.435   0.929
  678SOL    HW2 2216   0.252   1.298   0.913
  679SOL     OW 2217   5.592   5.337   0.288
  679SOL    HW1 2218   5.639   5.425   0.292
  679SOL    HW2 2219   5.658   5.265   0.269
  680SOL     OW 2220   3.470   4.435   3.187
  680SOL    HW1 2221   3.560   4.394   3.197
  680SOL    HW2 2222   3.400   4.367   3.206
  681SOL     OW 2223   5.029   0.411   2.031
  681SOL    HW1 2224   4.973   0.472   2.086
  681SOL    HW2 2225   5.120   0.404   2.072
  682SOL     OW 2226   0.310   4.331   2.098
  682SOL    HW1 2227   0.380   4.260   2.106
  682SOL    HW2 2228   0.221   4.288   2.086
  683SOL     OW 2229   4.049   4.956   3.575
  683SOL    HW1 2230   4.061   4.865   3.533
  683SOL    HW2 2231   3.952   4.972   3.591
  684SOL     OW 2232   1.108   3.804   1.424
  684SOL    HW1 2233   1.137   3.887   1.473
  684SOL    HW2 2234   1.063   3.831   1.339
  685SOL     OW 2235   0.609   3.866   2.422
  685SOL    HW1 2236   0.573   3.776   2.398
  685SOL    HW2 2237   0.698   3.879   2.378
  686SOL     OW 2238   2.532   4.532   3.473
  686SOL    HW1 2239   2.617   4.507   3.518
  686SOL    HW2 2240   2.546   4.614   3.418
  687SOL     OW 2241   4.489   2.779   5.043
  687SOL    HW1 2242   4.538   2.847   4.989
  687SOL    HW2 2243   4.495   2.690   4.997
  688SOL     OW 2244   3.230   2.564   2.170
  688SOL    HW1 2245   3.276   2.574   2.082
  688SOL    HW2 2246   3.134   2.590   2.160
  689SOL     OW 2247   1.348   3.265   2.502
  689SOL    HW1 2248   1.368   3.360   2.478
  689SOL    HW2 2249   1.359   3.253   2.601
  690SOL     OW 2250   2.915   0.917   4.362
  690SOL    HW1 2251   2.910   0.907   4.263
  690SOL    HW2 2252   2.969   0.842   4.400
  691SOL     OW 2253   2.988   2.483   1.538
  691SOL    HW1 2254   3.052   2.547   1.495
  691SOL    HW2 2255   3.004   2.391   1.500
  692SOL     OW 2256   2.433   0.237   4.978
  692SOL    HW1 2257   2.533   0.237   4.987
  692SOL    HW2 2258   2.405   0.151   4.934
  693SOL     OW 2259   3.307   2.045   0.563
  693SOL    HW1 2260   3.385   2.073   0.619
  693SOL    HW2 2261   3.275   2.123   0.510
  694SOL     OW 2262   3.057   0.487   3.549
  694SOL    HW1 2263   2.973   0.471   3.498
  694SOL    HW2 2264   3.082   0.584   3.542
  695SOL     OW 2265   4.762   4.021   0.405
  695SOL    HW1 2266   4.785   3.956   0.332
  695SOL    HW2 2267   4.804   3.989   0.490
  696SOL     OW 2268   2.926   1.706   0.311
  696SOL    HW1 2269   3.007   1.674   0.261
  696SOL    HW2 2270   2.905   1.799   0.281
  697SOL     OW 2271   3.220   0.571   4.830
  697SOL    HW1 2272   3.174   0.565   4.741
  697SOL    HW2 2273   3.211   0.665   4.865
  698SOL     OW 2274   1.935   3.618   4.633
  698SOL    HW1 2275   1.846   3.630   4.678
  698SOL    HW2 2276   1.962   3.522   4.639
  699SOL     OW 2277   3.167   0.782   1.184
  699SOL    HW1 2278   3.217   0.716   1.240
  699SOL    HW2 2279   3.082   0.740   1.151
  700SOL     OW 2280   3.826   4.681   2.521
  700SOL    HW1 2281   3.817   4.591   2.564
  700SOL    HW2 2282   3.758   4.690   2.448
  701SOL     OW 2283   3.620   5.046   3.911
  701SOL    HW1 2284   3.704   5.001   3.880
  701SOL    HW2 2285   3.541   4.991   3.885
  702SOL     OW 2286   0.219   5.330   0.364
  702SOL    HW1 2287   0.216   5.232   0.349
  702SOL    HW2 2288   0.313   5.357   0.388
  703SOL     OW 2289   2.019   3.727   3.837
  703SOL    HW1 2290   2.095   3.667   3.813
  703SOL    HW2 2291   1.933   3.679   3.824
  704SOL     OW 2292   1.002   4.232   1.401
  704SOL    HW1 2293   1.022   4.267   1.493
  704SOL    HW2 2294   0.903   4.226   1.389
  705SOL     OW 2295   4.317   1.890   3.571
  705SOL    HW1 2296   4.387   1.850   3.513
  705SOL    HW2 2297   4.243   1.824   3.586
  706SOL     OW 2298   4.768   5.534   2.378
  706SOL    HW1 2299   4.783   5.603   2.449
  706SOL    HW2 2300   4.846   5.473   2.374
  707SOL     OW 2301   3.364   0.181   1.899
  707SOL    HW1 2302   3.403   0.273   1.891
  707SOL    HW2 2303   3.299   0.179   1.975
  708SOL     OW 2304   1.172   4.986   0.941
  708SOL    HW1 2305   1.261   4.941   0.930
  708SOL    HW2 2306   1.187   5.085   0.950
  709SOL     OW 2307   0.270   0.763   3.315
  709SOL    HW1 2308   0.251   0.827   3.389
  709SOL    HW2 2309   0.271   0.812   3.228
  710SOL     OW 2310   0.327   2.435   4.834
  710SOL    HW1 2311   0.393   2.424   4.759
  710SOL    HW2 2312   0.280   2.348   4.848
  711SOL     OW 2313   3.112   3.290   0.850
  711SOL    HW1 2314   3.099   3.209   0.906
  711SOL    HW2 2315   3.064   3.367   0.892
  712SOL     OW 2316   5.554   2.214   0.706
  712SOL    HW1 2317   5.456   2.225   0.694
  712SOL    HW2 2318   5.601   2.297   0.676
  713SOL     OW 2319   2.855   3.504   1.009
  713SOL    HW1 2320   2.781   3.437   1.018
  713SOL    HW2 2321   2.817   3.596   1.015
  714SOL     OW 2322   3.310   0.777   3.617
  714SOL    HW1 2323   3.337   0.873   3.625
  714SOL    HW2 2324   3.392   0.719   3.616
  715SOL     OW 2325   2.841   0.379   0.922
  715SOL    HW1 2326   2.788   0.460   0.896
  715SOL    HW2 2327   2.783   0.298   0.912
  716SOL     OW 2328   1.182   4.682   2.473
  716SOL    HW1 2329   1.282   4.682   2.473
  716SOL    HW2 2330   1.149   4.658   2.382
  717SOL     OW 2331   4.464   1.436   3.515
  717SOL    HW1 2332   4.391   1.470   3.456
  717SOL    HW2 2333   4.492   1.509   3.578
  718SOL     OW 2334   4.370   5.074   4.464
  718SOL    HW1 2335   4.470   5.079   4.471
  718SOL    HW2 2336   4.344   5.051   4.371
  719SOL     OW 2337   1.759   5.595   4.802
  719SOL    HW1 2338   1.697   5.517   4.796
  719SOL    HW2 2339   1.807   5.593   4.890
  720SOL     OW 2340   3.802   0.152   2.735
  720SOL    HW1 2341   3.708   0.185   2.737
  720SOL    HW2 2342   3.840   0.152   2.827
  721SOL     OW 2343   4.641   0.513   0.596
  721SOL    HW1 2344   4.579   0.472   0.529
  721SOL    HW2 2345   4.613   0.485   0.688
  722SOL     OW 2346   1.306   5.157   2.468
  722SOL    HW1 2347   1.379   5.156   2.536
  722SOL    HW2 2348   1.254   5.072   2.474
  723SOL     OW 2349   2.372   1.571   3.060
  723SOL    HW1 2350   2.274   1.558   3.076
  723SOL    HW2 2351   2.422   1.492   3.097
  724SOL     OW 2352   4.204   0.755   4.269
  724SOL    HW1 2353   4.301   0.735   4.271
  724SOL    HW2 2354   4.163   0.730   4.356
  725SOL     OW 2355   4.474   1.153   3.512
  725SOL    HW1 2356   4.375   1.168   3.511
  725SOL    HW2 2357   4.521   1.241   3.507
  726SOL     OW 2358   0.369   2.561   3.187
  726SOL    HW1 2359   0.276   2.544   3.153
  726SOL    HW2 2360   0.383   2.660   3.194
  727SOL     OW 2361   0.832   2.046   1.952
  727SOL    HW1 2362   0.747   2.024   1.999
  727SOL    HW2 2363   0.909   2.023   2.011
  728SOL     OW 2364   1.640   4.501   4.348
  728SOL    HW1 2365   1.635   4.561   4.269
  728SOL    HW2 2366   1.735   4.489   4.375
  729SOL     OW 2367   3.020   2.538   4.784
  729SOL    HW1 2368   2.960   2.570   4.857
  729SOL    HW2 2369   3.114   2.566   4.803
  730SOL     OW 2370   5.522   2.095   1.923
  730SOL    HW1 2371   5.611   2.119   1.960
  730SOL    HW2 2372   5.466   2.055   1.995
  731SOL     OW 2373   3.715   4.897   3.017
  731SOL    HW1 2374   3.814   4.888   3.023
  731SOL    HW2 2375   3.674   4.806   3.008
  732SOL     OW 2376   5.011   1.568   5.114
  732SOL    HW1 2377   5.034   1.514   5.196
  732SOL    HW2 2378   5.083   1.555   5.046
  733SOL     OW 2379   1.120   4.854   4.188
  733SOL    HW1 2380   1.202   4.820   4.235
  733SOL    HW2 2381   1.040   4.834   4.245
  734SOL     OW 2382   1.025   5.553   4.055
  734SOL    HW1 2383   1.084   5.633   4.043
  734SOL    HW2 2384   0.930   5.580   4.036
  735SOL     OW 2385   5.430   2.211   3.645
  735SOL    HW1 2386   5.453   2.304   3.674
  735SOL    HW2 2387   5.444   2.148   3.721
  736SOL     OW 2388   2.493   5.032   1.874
  736SOL    HW1 2389   2.550   4.955   1.843
  736SOL    HW2 2390   2.535   5.118   1.845
  737SOL     OW 2391   3.573   3.108   1.764
  737SOL    HW1 2392   3.480   3.137   1.785
  737SOL    HW2 2393   3.631   3.124   1.845
  738SOL     OW 2394   4.277   5.559   1.561
  738SOL    HW1 2395   4.359   5.609   1.532
  738SOL    HW2 2396   4.226   5.615   1.626
  739SOL     OW 2397   1.334   2.766   4.250
  739SOL    HW1 2398   1.280   2.683   4.265
  739SOL    HW2 2399   1.430   2.740   4.237
  740SOL     OW 2400   1.254   0.240   4.429
  740SOL    HW1 2401   1.169   0.205   4.467
  740SOL    HW2 2402   1.329   0.178   4.452
  741SOL     OW 2403   3.209   0.978   2.598
  741SOL    HW1 2404   3.292   1.033   2.585
  741SOL    HW2 2405   3.147   0.993   2.521
  742SOL     OW 2406   2.079   2.694   1.316
  742SOL    HW1 2407   2.065   2.652   1.406
  742SOL    HW2 2408   2.164   2.659   1.277
  743SOL     OW 2409   2.421   2.374   0.221
  743SOL    HW1 2410   2.419   2.275   0.209
  743SOL    HW2 2411   2.419   2.395   0.319
  744SOL     OW 2412   5.180   1.523   1.149
  744SOL    HW1 2413   5.247   1.597   1.151
  744SOL    HW2 2414   5.225   1.437   1.175
  745SOL     OW 2415   2.773   0.724   3.657
  745SOL    HW1 2416   2.857   0.675   3.635
  745SOL    HW2 2417   2.766   0.805   3.599
  746SOL     OW 2418   5.568   1.733   1.754
  746SOL    HW1 2419   5.534   1.651   1.708
  746SOL    HW2 2420   5.540   1.813   1.702
  747SOL     OW 2421   5.448   4.867   4.985
  747SOL    HW1 2422   5.453   4.767   4.991
  747SOL    HW2 2423   5.540   4.905   4.997
  748SOL     OW 2424   2.000   4.754   2.559
  748SOL    HW1 2425   2.091   4.793   2.565
  748SOL    HW2 2426   1.932   4.827   2.566
  749SOL     OW 2427   2.060   1.758   4.818
  749SOL    HW1 2428   2.152   1.781   4.787
  749SOL    HW2 2429   1.993   1.796   4.754
  750SOL     OW 2430   1.191   5.438   4.303
  750SOL    HW1 2431   1.101   5.447   4.260
  750SOL    HW2 2432   1.243   5.366   4.256
  751SOL     OW 2433   2.859   5.584   2.292
  751SOL    HW1 2434   2.881   5.639   2.211
  751SOL    HW2 2435   2.939   5.582   2.351
  752SOL     OW 2436   1.882   5.478   2.135
  752SOL    HW1 2437   1.912   5.418   2.061
  752SOL    HW2 2438   1.788   5.453   2.161
  753SOL     OW 2439   3.810   1.422   1.195
  753SOL    HW1 2440   3.877   1.461   1.258
  753SOL    HW2 2441   3.808   1.323   1.207
  754SOL     OW 2442   2.986   5.670   3.990
  754SOL    HW1 2443   3.071   5.636   3.951
  754SOL    HW2 2444   2.976   5.634   4.083
  755SOL     OW 2445   4.626   3.373   3.090
  755SOL    HW1 2446   4.559   3.446   3.102
  755SOL    HW2 2447   4.579   3.288   3.068
  756SOL     OW 2448   0.787   5.341   1.038
  756SOL    HW1 2449   0.865   5.394   1.071
  756SOL    HW2 2450   0.806   5.244   1.049
  757SOL     OW 2451   1.606   1.037   4.671
  757SOL    HW1 2452   1.616   1.125   4.717
  757SOL    HW2 2453   1.680   0.976   4.699
  758SOL     OW 2454   5.152   4.188   1.576
  758SOL    HW1 2455   5.127   4.282   1.553
  758SOL    HW2 2456   5.218   4.190   1.651
  759SOL     OW 2457   3.289   1.870   2.192
  759SOL    HW1 2458   3.261   1.776   2.215
  759SOL    HW2 2459   3.292   1.925   2.275
  760SOL     OW 2460   2.648   4.598   1.308
  760SOL    HW1 2461   2.726   4.582   1.369
  760SOL    HW2 2462   2.627   4.696   1.306
  761SOL     OW 2463   1.779   1.323   3.585
  761SOL    HW1 2464   1.799   1.349   3.679
  761SOL    HW2 2465   1.857   1.274   3.547
  762SOL     OW 2466   0.468   5.502   4.280
  762SOL    HW1 2467   0.381   5.474   4.319
  762SOL    HW2 2468   0.490   5.594   4.312
  763SOL     OW 2469   0.958   1.591   4.230
  763SOL    HW1 2470   1.041   1.537   4.217
  763SOL    HW2 2471   0.885   1.531   4.265
  764SOL     OW 2472   2.704   2.057   1.879
  764SOL    HW1 2473   2.619   2.052   1.827
  764SOL    HW2 2474   2.683   2.079   1.974
  765SOL     OW 2475   2.645   0.524   4.597
  765SOL    HW1 2476   2.699   0.604   4.624
  765SOL    HW2 2477   2.694   0.441   4.624
  766SOL     OW 2478   2.008   5.028   1.469
  766SOL    HW1 2479   2.089   5.039   1.412
  766SOL    HW2 2480   1.954   5.112   1.466
  767SOL     OW 2481   0.789   4.266   4.357
  767SOL    HW1 2482   0.830   4.213   4.283
  767SOL    HW2 2483   0.796   4.364   4.335
  768SOL     OW 2484   3.028   1.846   3.217
  768SOL    HW1 2485   2.958   1.775   3.229
  768SOL    HW2 2486   2.988   1.935   3.235
  769SOL     OW 2487   0.413   3.157   5.525
  769SOL    HW1 2488   0.427   3.201   5.436
  769SOL    HW2 2489   0.429   3.059   5.516
  770SOL     OW 2490   5.157   0.550   1.235
  770SOL    HW1 2491   5.189   0.614   1.165
  770SOL    HW2 2492   5.093   0.597   1.295
  771SOL     OW 2493   1.577   5.415   0.639
  771SOL    HW1 2494   1.672   5.447   0.639
  771SOL    HW2 2495   1.573   5.326   0.593
  772SOL     OW 2496   2.157   5.128   4.698
  772SOL    HW1 2497   2.118   5.213   4.732
  772SOL    HW2 2498   2.145   5.123   4.599
  773SOL     OW 2499   0.753   4.588   4.517
  773SOL    HW1 2500   0.817   4.636   4.456
  773SOL    HW2 2501   0.801   4.515   4.565
  774SOL     OW 2502   2.648   2.309   2.865
  774SOL    HW1 2503   2.721   2.263   2.815
  774SOL    HW2 2504   2.684   2.392   2.908
  775SOL     OW 2505   2.694   2.343   1.720
  775SOL    HW1 2506   2.775   2.345   1.662
  775SOL    HW2 2507   2.708   2.276   1.794
  776SOL     OW 2508   4.174   4.306   2.684
  776SOL    HW1 2509   4.093   4.311   2.626
  776SOL    HW2 2510   4.192   4.396   2.723
  777SOL     OW 2511   3.999   0.724   2.078
  777SOL    HW1 2512   4.008   0.823   2.088
  777SOL    HW2 2513   4.088   0.681   2.093
  778SOL     OW 2514   2.514   3.056   1.415
  778SOL    HW1 2515   2.444   3.123   1.438
  778SOL    HW2 2516   2.501   2.974   1.471
  779SOL     OW 2517   2.850   4.590   4.386
  779SOL    HW1 2518   2.795   4.508   4.374
  779SOL    HW2 2519   2.812   4.664   4.331
  780SOL     OW 2520   4.917   4.245   2.333
  780SOL    HW1 2521   4.996   4.282   2.285
  780SOL    HW2 2522   4.944   4.215   2.425
  781SOL     OW 2523   4.604   2.476   3.013
  781SOL    HW1 2524   4.605   2.576   3.018
  781SOL    HW2 2525   4.630   2.447   2.921
  782SOL     OW 2526   5.480   3.614   4.794
  782SOL    HW1 2527   5.435   3.703   4.791
  782SOL    HW2 2528   5.491   3.586   4.889
  783SOL     OW 2529   0.888   2.555   1.363
  783SOL    HW1 2530   0.804   2.559   1.416
  783SOL    HW2 2531   0.897   2.464   1.323
  784SOL     OW 2532   3.494   5.220   1.870
  784SOL    HW1 2533   3.584   5.230   1.827
  784SOL    HW2 2534   3.472   5.305   1.919
  785SOL     OW 2535   4.168   2.903   5.041
  785SOL    HW1 2536   4.122   2.988   5.068
  785SOL    HW2 2537   4.121   2.825   5.081
  786SOL     OW 2538   1.598   3.415   4.013
  786SOL    HW1 2539   1.511   3.372   4.038
  786SOL    HW2 2540   1.665   3.345   3.990
  787SOL     OW 2541   0.615   2.588   1.985
  787SOL    HW1 2542   0.552   2.540   2.046
  787SOL    HW2 2543   0.603   2.555   1.892
  788SOL     OW 2544   4.167   4.076   2.477
  788SOL    HW1 2545   4.163   3.982   2.442
  788SOL    HW2 2546   4.239   4.083   2.546
  789SOL     OW 2547   4.045   4.021   4.894
  789SOL    HW1 2548   4.066   3.925   4.915
  789SOL    HW2 2549   4.130   4.074   4.896
  790SOL     OW 2550   3.534   4.437   1.845
  790SOL    HW1 2551   3.569   4.527   1.870
  790SOL    HW2 2552   3.609   4.371   1.844
  791SOL     OW 2553   3.085   5.453   5.310
  791SOL    HW1 2554   3.098   5.387   5.384
  791SOL    HW2 2555   3.058   5.541   5.348
  792SOL     OW 2556   3.816   2.682   0.329
  792SOL    HW1 2557   3.760   2.622   0.386
  792SOL    HW2 2558   3.764   2.705   0.247
  793SOL     OW 2559   0.458   3.162   2.393
  793SOL    HW1 2560   0.538   3.218   2.413
  793SOL    HW2 2561   0.478   3.066   2.416
  794SOL     OW 2562   4.615   0.300   4.361
  794SOL    HW1 2563   4.629   0.209   4.400
  794SOL    HW2 2564   4.655   0.368   4.422
  795SOL     OW 2565   2.944   3.141   1.633
  795SOL    HW1 2566   3.035   3.157   1.593
  795SOL    HW2 2567   2.883   3.215   1.605
  796SOL     OW 2568   1.607   3.103   1.231
  796SOL    HW1 2569   1.576   3.018   1.274
  796SOL    HW2 2570   1.701   3.121   1.259
  797SOL     OW 2571   4.112   5.579   1.051
  797SOL    HW1 2572   4.186   5.645   1.060
  797SOL    HW2 2573   4.143   5.503   0.994
  798SOL     OW 2574   3.072   3.741   2.760
  798SOL    HW1 2575   3.045   3.644   2.766
  798SOL    HW2 2576   3.072   3.769   2.665
  799SOL     OW 2577   1.611   5.321   3.351
  799SOL    HW1 2578   1.524   5.293   3.390
  799SOL    HW2 2579   1.676   5.339   3.425
  800SOL     OW 2580   1.825   1.186   4.852
  800SOL    HW1 2581   1.891   1.240   4.904
  800SOL    HW2 2582   1.827   1.091   4.885
  801SOL     OW 2583   1.486   3.933   2.533
  801SOL    HW1 2584   1.500   3.958   2.629
  801SOL    HW2 2585   1.391   3.951   2.509
  802SOL     OW 2586   3.222   0.338   2.089
  802SOL    HW1 2587   3.188   0.409   2.026
  802SOL    HW2 2588   3.220   0.374   2.182
  803SOL     OW 2589   1.116   0.744   0.120
  803SOL    HW1 2590   1.022   0.727   0.149
  803SOL    HW2 2591   1.145   0.834   0.153
  804SOL     OW 2592   1.357   0.476   3.170
  804SOL    HW1 2593   1.298   0.396   3.159
  804SOL    HW2 2594   1.313   0.541   3.231
  805SOL     OW 2595   3.113   0.414   5.444
  805SOL    HW1 2596   3.028   0.378   5.482
  805SOL    HW2 2597   3.145   0.354   5.371
  806SOL     OW 2598   0.338   0.975   3.939
  806SOL    HW1 2599   0.393   0.894   3.958
  806SOL    HW2 2600   0.266   0.951   3.873
  807SOL     OW 2601   4.716   0.979   4.514
  807SOL    HW1 2602   4.665   0.894   4.523
  807SOL    HW2 2603   4.663   1.055   4.552
  808SOL     OW 2604   5.294   2.120   0.252
  808SOL    HW1 2605   5.232   2.162   0.186
  808SOL    HW2 2606   5.241   2.061   0.314
  809SOL     OW 2607   4.650   5.555   4.848
  809SOL    HW1 2608   4.685   5.552   4.941
  809SOL    HW2 2609   4.653   5.650   4.815
  810SOL     OW 2610   1.109   2.098   4.589
  810SOL    HW1 2611   1.138   2.194   4.583
  810SOL    HW2 2612   1.187   2.039   4.569
  811SOL     OW 2613   1.103   1.819   2.919
  811SOL    HW1 2614   1.053   1.893   2.966
  811SOL    HW2 2615   1.193   1.808   2.961
  812SOL     OW 2616   1.051   5.011   2.552
  812SOL    HW1 2617   1.021   5.102   2.581
  812SOL    HW2 2618   1.069   4.955   2.633
  813SOL     OW 2619   2.199   0.874   0.230
  813SOL    HW1 2620   2.157   0.790   0.265
  813SOL    HW2 2621   2.296   0.858   0.216
  814SOL     OW 2622   4.773   5.292   0.552
  814SOL    HW1 2623   4.770   5.351   0.633
  814SOL    HW2 2624   4.679   5.272   0.523
  815SOL     OW 2625   0.433   3.577   5.649
  815SOL    HW1 2626   0.391   3.667   5.662
  815SOL    HW2 2627   0.362   3.507   5.651
  816SOL     OW 2628   0.414   1.243   2.478
  816SOL    HW1 2629   0.388   1.229   2.573
  816SOL    HW2 2630   0.332   1.261   2.424
  817SOL     OW 2631   0.942   0.966   0.835
  817SOL    HW1 2632   0.894   0.908   0.769
  817SOL    HW2 2633   0.996   1.033   0.785
  818SOL     OW 2634   5.384   5.475   3.595
  818SOL    HW1 2635   5.286   5.474   3.616
  818SOL    HW2 2636   5.405   5.395   3.538
  819SOL     OW 2637   2.883   5.488   0.842
  819SOL    HW1 2638   2.890   5.580   0.880
  819SOL    HW2 2639   2.797   5.446   0.870
  820SOL     OW 2640   5.331   0.648   3.125
  820SOL    HW1 2641   5.347   0.707   3.204
  820SOL    HW2 2642   5.344   0.701   3.041
  821SOL     OW 2643   3.171   1.906   0.157
  821SOL    HW1 2644   3.109   1.916   0.235
  821SOL    HW2 2645   3.266   1.911   0.189
  822SOL     OW 2646   1.972   3.671   2.510
  822SOL    HW1 2647   1.894   3.723   2.474
  822SOL    HW2 2648   1.965   3.576   2.479
  823SOL     OW 2649   3.464   4.732   1.858
  823SOL    HW1 2650   3.425   4.778   1.778
  823SOL    HW2 2651   3.393   4.674   1.900
  824SOL     OW 2652   0.808   3.709   3.661
  824SOL    HW1 2653   0.896   3.667   3.638
  824SOL    HW2 2654   0.819   3.808   3.669
  825SOL     OW 2655   1.762   4.821   4.009
  825SOL    HW1 2656   1.672   4.791   4.040
  825SOL    HW2 2657   1.829   4.749   4.027
  826SOL     OW 2658   5.353   2.091   1.634
  826SOL    HW1 2659   5.440   2.071   1.680
  826SOL    HW2 2660   5.293   2.141   1.696
  827SOL     OW 2661   3.032   4.969   0.217
  827SOL    HW1 2662   3.026   5.063   0.183
  827SOL    HW2 2663   3.066   4.910   0.144
  828SOL     OW 2664   0.491   2.276   2.913
  828SOL    HW1 2665   0.400   2.319   2.908
  828SOL    HW2 2666   0.498   2.225   2.999
  829SOL     OW 2667   2.174   1.123   1.521
  829SOL    HW1 2668   2.142   1.206   1.476
  829SOL    HW2 2669   2.143   1.123   1.616
  830SOL     OW 2670   5.375   2.522   3.194
  830SOL    HW1 2671   5.283   2.485   3.191
  830SOL    HW2 2672   5.388   2.586   3.119
  831SOL     OW 2673   1.465   3.894   0.799
  831SOL    HW1 2674   1.548   3.839   0.802
  831SOL    HW2 2675   1.490   3.991   0.808
  832SOL     OW 2676   4.868   1.478   3.216
  832SOL    HW1 2677   4.915   1.394   3.240
  832SOL    HW2 2678   4.929   1.556   3.232
  833SOL     OW 2679   1.597   1.563   5.497
  833SOL    HW1 2680   1.595   1.660   5.522
  833SOL    HW2 2681   1.670   1.548   5.430
  834SOL     OW 2682   4.624   1.070   1.683
  834SOL    HW1 2683   4.535   1.031   1.660
  834SOL    HW2 2684   4.623   1.168   1.664
  835SOL     OW 2685   2.100   5.542   0.296
  835SOL    HW1 2686   2.009   5.554   0.255
  835SOL    HW2 2687   2.165   5.601   0.248
  836SOL     OW 2688   1.189   2.140   3.747
  836SOL    HW1 2689   1.227   2.211   3.806
  836SOL    HW2 2690   1.095   2.121   3.775
  837SOL     OW 2691   1.304   0.508   2.155
  837SOL    HW1 2692   1.390   0.542   2.117
  837SOL    HW2 2693   1.261   0.446   2.089
  838SOL     OW 2694   0.957   1.273   2.108
  838SOL    HW1 2695   0.897   1.352   2.118
  838SOL    HW2 2696   0.942   1.211   2.185
  839SOL     OW 2697   2.735   5.136   5.294
  839SOL    HW1 2698   2.816   5.106   5.344
  839SOL    HW2 2699   2.716   5.232   5.317
  840SOL     OW 2700   0.397   1.727   3.540
  840SOL    HW1 2701   0.313   1.783   3.539
  840SOL    HW2 2702   0.375   1.635   3.507
  841SOL     OW 2703   1.022   0.899   4.895
  841SOL    HW1 2704   1.119   0.905   4.920
  841SOL    HW2 2705   1.015   0.874   4.798
  842SOL     OW 2706   2.596   3.603   2.401
  842SOL    HW1 2707   2.548   3.592   2.489
  842SOL    HW2 2708   2.583   3.521   2.346
  843SOL     OW 2709   0.444   1.151   5.463
  843SOL    HW1 2710   0.431   1.230   5.523
  843SOL    HW2 2711   0.505   1.085   5.508
  844SOL     OW 2712   4.212   2.696   2.184
  844SOL    HW1 2713   4.298   2.707   2.233
  844SOL    HW2 2714   4.228   2.646   2.099
  845SOL     OW 2715   0.785   3.010   5.605
  845SOL    HW1 2716   0.785   3.096   5.656
  845SOL    HW2 2717   0.709   3.010   5.540
  846SOL     OW 2718   3.415   2.628   3.819
  846SOL    HW1 2719   3.317   2.638   3.833
  846SOL    HW2 2720   3.463   2.698   3.872
  847SOL     OW 2721   3.326   1.052   2.331
  847SOL    HW1 2722   3.343   1.140   2.377
  847SOL    HW2 2723   3.402   1.031   2.270
  848SOL     OW 2724   3.872   0.491   3.359
  848SOL    HW1 2725   3.815   0.484   3.277
  848SOL    HW2 2726   3.932   0.570   3.351
  849SOL     OW 2727   4.003   1.751   3.910
  849SOL    HW1 2728   4.033   1.846   3.904
  849SOL    HW2 2729   4.033   1.702   3.829
  850SOL     OW 2730   3.681   0.569   5.376
  850SOL    HW1 2731   3.733   0.531   5.299
  850SOL    HW2 2732   3.617   0.638   5.341
  851SOL     OW 2733   2.840   3.094   3.821
  851SOL    HW1 2734   2.753   3.100   3.772
  851SOL    HW2 2735   2.871   3.186   3.845
  852SOL     OW 2736   4.567   4.784   0.693
  852SOL    HW1 2737   4.653   4.780   0.744
  852SOL    HW2 2738   4.584   4.828   0.604
  853SOL     OW 2739   4.283   2.952   2.289
  853SOL    HW1 2740   4.209   2.901   2.246
  853SOL    HW2 2741   4.279   2.938   2.388
  854SOL     OW 2742   0.863   2.851   1.193
  854SOL    HW1 2743   0.807   2.773   1.167
  854SOL    HW2 2744   0.959   2.822   1.197
  855SOL     OW 2745   3.558   2.438   2.883
  855SOL    HW1 2746   3.478   2.420   2.941
  855SOL    HW2 2747   3.537   2.412   2.789
  856SOL     OW 2748   3.758   3.965   4.779
  856SOL    HW1 2749   3.712   4.053   4.789
  856SOL    HW2 2750   3.846   3.969   4.826
  857SOL     OW 2751   2.610   3.420   1.290
  857SOL    HW1 2752   2.536   3.459   1.346
  857SOL    HW2 2753   2.573   3.392   1.201
  858SOL     OW 2754   3.580   0.444   2.593
  858SOL    HW1 2755   3.602   0.361   2.541
  858SOL    HW2 2756   3.524   0.504   2.536
  859SOL     OW 2757   3.378   2.900   4.888
  859SOL    HW1 2758   3.405   2.828   4.825
  859SOL    HW2 2759   3.453   2.919   4.951
  860SOL     OW 2760   0.701   1.929   3.689
  860SOL    HW1 2761   0.610   1.965   3.704
  860SOL    HW2 2762   0.694   1.834   3.658
  861SOL     OW 2763   1.574   3.068   0.620
  861SOL    HW1 2764   1.510   3.039   0.549
  861SOL    HW2 2765   1.575   3.000   0.693
  862SOL     OW 2766   1.053   3.104   0.719
  862SOL    HW1 2767   1.135   3.084   0.665
  862SOL    HW2 2768   0.992   3.025   0.715
  863SOL     OW 2769   3.746   4.271   3.038
  863SOL    HW1 2770   3.724   4.368   3.024
  863SOL    HW2 2771   3.823   4.247   2.979
  864SOL     OW 2772   1.874   4.846   4.619
  864SOL    HW1 2773   1.820   4.810   4.696
  864SOL    HW2 2774   1.913   4.934   4.646
  865SOL     OW 2775   1.640   1.906   0.262
  865SOL    HW1 2776   1.577   1.842   0.306
  865SOL    HW2 2777   1.710   1.934   0.328
  866SOL     OW 2778   4.077   2.771   1.888
  866SOL    HW1 2779   4.120   2.683   1.871
  866SOL    HW2 2780   4.013   2.792   1.814
  867SOL     OW 2781   5.456   2.735   5.103
  867SOL    HW1 2782   5.544   2.779   5.122
  867SOL    HW2 2783   5.390   2.805   5.075
  868SOL     OW 2784   3.150   0.955   1.549
  868SOL    HW1 2785   3.202   0.907   1.620
  868SOL    HW2 2786   3.073   1.002   1.592
  869SOL     OW 2787   5.586   1.989   3.349
  869SOL    HW1 2788   5.551   1.898   3.368
  869SOL    HW2 2789   5.556   2.052   3.421
  870SOL     OW 2790   2.627   1.213   4.731
  870SOL    HW1 2791   2.720   1.179   4.719
  870SOL    HW2 2792   2.629   1.302   4.775
  871SOL     OW 2793   0.520   4.963   0.208
  871SOL    HW1 2794   0.574   4.887   0.242
  871SOL    HW2 2795   0.569   5.049   0.226
  872SOL     OW 2796   4.182   5.095   3.156
  872SOL    HW1 2797   4.136   5.129   3.239
  872SOL    HW2 2798   4.271   5.139   3.147
  873SOL     OW 2799   1.451   4.701   3.783
  873SOL    HW1 2800   1.489   4.611   3.803
  873SOL    HW2 2801   1.358   4.707   3.821
  874SOL     OW 2802   5.558   3.427   4.413
  874SOL    HW1 2803   5.650   3.452   4.444
  874SOL    HW2 2804   5.565   3.357   4.342
  875SOL     OW 2805   1.752   5.417   2.639
  875SOL    HW1 2806   1.808   5.481   2.692
  875SOL    HW2 2807   1.756   5.327   2.683
  876SOL     OW 2808   5.443   2.904   2.075
  876SOL    HW1 2809   5.355   2.945   2.095
  876SOL    HW2 2810   5.512   2.976   2.064
  877SOL     OW 2811   2.233   4.636   4.968
  877SOL    HW1 2812   2.318   4.618   4.918
  877SOL    HW2 2813   2.254   4.683   5.053
  878SOL     OW 2814   1.883   2.904   1.155
  878SOL    HW1 2815   1.924   2.814   1.168
  878SOL    HW2 2816   1.952   2.968   1.121
  879SOL     OW 2817   3.084   0.291   3.897
  879SOL    HW1 2818   3.009   0.339   3.944
  879SOL    HW2 2819   3.104   0.207   3.947
  880SOL     OW 2820   0.251   1.776   1.028
  880SOL    HW1 2821   0.242   1.857   0.970
  880SOL    HW2 2822   0.210   1.697   0.981
  881SOL     OW 2823   5.210   2.253   3.438
  881SOL    HW1 2824   5.200   2.155   3.455
  881SOL    HW2 2825   5.299   2.284   3.473
  882SOL     OW 2826   5.313   0.749   4.130
  882SOL    HW1 2827   5.358   0.791   4.210
  882SOL    HW2 2828   5.270   0.821   4.075
  883SOL     OW 2829   2.742   1.282   1.552
  883SOL    HW1 2830   2.746   1.191   1.512
  883SOL    HW2 2831   2.646   1.308   1.566
  884SOL     OW 2832   1.810   4.010   0.764
  884SOL    HW1 2833   1.862   4.074   0.708
  884SOL    HW2 2834   1.730   4.057   0.801
  885SOL     OW 2835   3.672   0.244   0.968
  885SOL    HW1 2836   3.635   0.151   0.976
  885SOL    HW2 2837   3.604   0.310   0.998
  886SOL     OW 2838   4.732   3.339   2.554
  886SOL    HW1 2839   4.674   3.414   2.586
  886SOL    HW2 2840   4.828   3.362   2.573
  887SOL     OW 2841   2.064   1.018   3.819
  887SOL    HW1 2842   2.128   0.943   3.803
  887SOL    HW2 2843   1.971   0.981   3.821
  888SOL     OW 2844   4.172   3.418   0.334
  888SOL    HW1 2845   4.227   3.345   0.376
  888SOL    HW2 2846   4.076   3.405   0.359
  889SOL     OW 2847   5.516   5.402   4.120
  889SOL    HW1 2848   5.521   5.451   4.033
  889SOL    HW2 2849   5.543   5.307   4.105
  890SOL     OW 2850   2.985   3.411   4.712
  890SOL    HW1 2851   2.957   3.333   4.767
  890SOL    HW2 2852   2.944   3.495   4.749
  891SOL     OW 2853   2.425   4.699   1.031
  891SOL    HW1 2854   2.442   4.632   0.959
  891SOL    HW2 2855   2.496   4.769   1.027
  892SOL     OW 2856   2.063   1.739   2.806
  892SOL    HW1 2857   2.139   1.721   2.743
  892SOL    HW2 2858   2.000   1.804   2.764
  893SOL     OW 2859   2.113   3.553   3.140
  893SOL    HW1 2860   2.199   3.526   3.183
  893SOL    HW2 2861   2.102   3.652   3.150
  894SOL     OW 2862   0.964   2.226   1.003
  894SOL    HW1 2863   0.877   2.223   1.053
  894SOL    HW2 2864   1.022   2.297   1.043
  895SOL     OW 2865   3.519   5.505   5.411
  895SOL    HW1 2866   3.595   5.567   5.392
  895SOL    HW2 2867   3.440   5.558   5.443
  896SOL     OW 2868   3.009   4.697   2.159
  896SOL    HW1 2869   3.092   4.722   2.109
  896SOL    HW2 2870   2.946   4.774   2.160
  897SOL     OW 2871   0.792   1.051   4.370
  897SOL    HW1 2872   0.746   1.005   4.293
  897SOL    HW2 2873   0.806   1.147   4.347
  898SOL     OW 2874   1.729   3.442   1.497
  898SOL    HW1 2875   1.691   3.367   1.443
  898SOL    HW2 2876   1.711   3.426   1.594
  899SOL     OW 2877   2.397   1.425   0.482
  899SOL    HW1 2878   2.379   1.518   0.450
  899SOL    HW2 2879   2.480   1.391   0.437
  900SOL     OW 2880   1.094   0.380   3.242
  900SOL    HW1 2881   1.072   0.442   3.317
  900SOL    HW2 2882   1.072   0.286   3.269
  901SOL     OW 2883   2.288   2.654   1.090
  901SOL    HW1 2884   2.312   2.751   1.079
  901SOL    HW2 2885   2.331   2.601   1.017
  902SOL     OW 2886   0.627   2.756   5.443
  902SOL    HW1 2887   0.722   2.749   5.473
  902SOL    HW2 2888   0.621   2.736   5.345
  903SOL     OW 2889   1.780   0.552   5.051
  903SOL    HW1 2890   1.727   0.468   5.038
  903SOL    HW2 2891   1.872   0.529   5.083
  904SOL     OW 2892   4.738   0.658   5.122
  904SOL    HW1 2893   4.769   0.706   5.204
  904SOL    HW2 2894   4.773   0.564   5.124
  905SOL     OW 2895   4.242   2.492   3.743
  905SOL    HW1 2896   4.222   2.590   3.753
  905SOL    HW2 2897   4.313   2.466   3.809
  906SOL     OW 2898   3.168   1.429   5.243
  906SOL    HW1 2899   3.177   1.529   5.239
  906SOL    HW2 2900   3.078   1.405   5.278
  907SOL     OW 2901   5.555   3.961   4.522
  907SOL    HW1 2902   5.641   3.978   4.570
  907SOL    HW2 2903   5.522   3.870   4.546
  908SOL     OW 2904   5.053   1.225   1.941
  908SOL    HW1 2905   4.959   1.258   1.944
  908SOL    HW2 2906   5.053   1.125   1.939
  909SOL     OW 2907   2.087   2.727   4.882
  909SOL    HW1 2908   2.082   2.827   4.893
  909SOL    HW2 2909   2.087   2.685   4.973
  910SOL     OW 2910   3.488   2.344   2.192
  910SOL    HW1 2911   3.574   2.371   2.236
  910SOL    HW2 2912   3.457   2.257   2.230
  911SOL     OW 2913   5.317   2.321   1.791
  911SOL    HW1 2914   5.380   2.356   1.721
  911SOL    HW2 2915   5.245   2.389   1.807
  912SOL     OW 2916   2.600   1.558   5.494
  912SOL    HW1 2917   2.632   1.464   5.484
  912SOL    HW2 2918   2.500   1.560   5.487
  913SOL     OW 2919   1.241   3.609   5.382
  913SOL    HW1 2920   1.202   3.682   5.326
  913SOL    HW2 2921   1.301   3.649   5.452
  914SOL     OW 2922   3.461   0.414   3.226
  914SOL    HW1 2923   3.454   0.470   3.309
  914SOL    HW2 2924   3.481   0.319   3.252
  915SOL     OW 2925   5.133   4.975   1.505
  915SOL    HW1 2926   5.161   4.886   1.468
  915SOL    HW2 2927   5.143   4.973   1.605
  916SOL     OW 2928   0.933   4.773   0.555
  916SOL    HW1 2929   1.011   4.712   0.537
  916SOL    HW2 2930   0.869   4.768   0.479
  917SOL     OW 2931   3.451   2.407   0.902
  917SOL    HW1 2932   3.508   2.420   0.984
  917SOL    HW2 2933   3.362   2.449   0.917
  918SOL     OW 2934   5.435   5.193   1.295
  918SOL    HW1 2935   5.336   5.185   1.284
  918SOL    HW2 2936   5.478   5.105   1.271
  919SOL     OW 2937   3.102   5.205   2.365
  919SOL    HW1 2938   3.003   5.194   2.366
  919SOL    HW2 2939   3.145   5.121   2.396
  920SOL     OW 2940   4.302   3.763   2.652
  920SOL    HW1 2941   4.218   3.744   2.602
  920SOL    HW2 2942   4.314   3.862   2.659
  921SOL     OW 2943   3.340   3.984   1.890
  921SOL    HW1 2944   3.393   3.921   1.833
  921SOL    HW2 2945   3.262   3.935   1.928
  922SOL     OW 2946   3.692   3.465   2.411
  922SOL    HW1 2947   3.792   3.464   2.405
  922SOL    HW2 2948   3.657   3.378   2.376
  923SOL     OW 2949   4.234   2.031   5.067
  923SOL    HW1 2950   4.334   2.035   5.072
  923SOL    HW2 2951   4.202   2.099   5.000
  924SOL     OW 2952   1.041   3.874   4.595
  924SOL    HW1 2953   1.063   3.971   4.604
  924SOL    HW2 2954   1.013   3.838   4.684
  925SOL     OW 2955   2.948   2.922   1.192
  925SOL    HW1 2956   3.018   2.864   1.233
  925SOL    HW2 2957   2.858   2.886   1.215
  926SOL     OW 2958   0.191   0.242   5.038
  926SOL    HW1 2959   0.149   0.152   5.025
  926SOL    HW2 2960   0.289   0.236   5.019
  927SOL     OW 2961   0.526   3.761   3.031
  927SOL    HW1 2962   0.451   3.827   3.041
  927SOL    HW2 2963   0.613   3.808   3.046
  928SOL     OW 2964   2.865   5.147   5.607
  928SOL    HW1 2965   2.937   5.177   5.545
  928SOL    HW2 2966   2.870   5.048   5.618
  929SOL     OW 2967   4.800   3.018   3.578
  929SOL    HW1 2968   4.772   3.095   3.520
  929SOL    HW2 2969   4.891   3.037   3.616
  930SOL     OW 2970   3.101   2.626   0.185
  930SOL    HW1 2971   3.026   2.563   0.204
  930SOL    HW2 2972   3.066   2.705   0.133
  931SOL     OW 2973   3.936   1.986   1.970
  931SOL    HW1 2974   3.842   2.005   1.941
  931SOL    HW2 2975   3.939   1.901   2.021
  932SOL     OW 2976   2.836   0.238   3.683
  932SOL    HW1 2977   2.882   0.150   3.668
  932SOL    HW2 2978   2.901   0.304   3.721
  933SOL     OW 2979   3.638   4.427   4.408
  933SOL    HW1 2980   3.617   4.484   4.329
  933SOL    HW2 2981   3.589   4.340   4.400
  934SOL     OW 2982   3.126   1.217   4.273
  934SOL    HW1 2983   3.169   1.281   4.209
  934SOL    HW2 2984   3.066   1.155   4.222
  935SOL     OW 2985   5.408   4.273   2.575
  935SOL    HW1 2986   5.404   4.330   2.657
  935SOL    HW2 2987   5.497   4.287   2.530
  936SOL     OW 2988   4.207   4.322   3.666
  936SOL    HW1 2989   4.191   4.239   3.612
  936SOL    HW2 2990   4.219   4.297   3.762
  937SOL     OW 2991   4.311   1.862   0.239
  937SOL    HW1 2992   4.407   1.879   0.256
  937SOL    HW2 2993   4.301   1.817   0.150
  938SOL     OW 2994   2.682   3.846   0.811
  938SOL    HW1 2995   2.596   3.895   0.799
  938SOL    HW2 2996   2.663   3.752   0.839
  939SOL     OW 2997   3.100   4.958   4.395
  939SOL    HW1 2998   3.103   4.992   4.489
  939SOL    HW2 2999   3.125   4.862   4.394
  940SOL     OW 3000   3.969   2.022   1.326
  940SOL    HW1 3001   3.951   2.021   1.228
  940SOL    HW2 3002   3.993   1.930   1.357
  941SOL     OW 3003   0.537   4.113   2.102
  941SOL    HW1 3004   0.617   4.094   2.044
  941SOL    HW2 3005   0.544   4.057   2.185
  942SOL     OW 3006   1.384   2.056   1.438
  942SOL    HW1 3007   1.423   1.965   1.456
  942SOL    HW2 3008   1.454   2.125   1.457
  943SOL     OW 3009   2.171   0.960   4.181
  943SOL    HW1 3010   2.255   0.919   4.146
  943SOL    HW2 3011   2.096   0.894   4.176
  944SOL     OW 3012   0.710   3.993   1.880
  944SOL    HW1 3013   0.795   4.017   1.834
  944SOL    HW2 3014   0.640   3.971   1.812
  945SOL     OW 3015   0.269   3.374   5.009
  945SOL    HW1 3016   0.316   3.442   4.954
  945SOL    HW2 3017   0.263   3.288   4.957
  946SOL     OW 3018   4.429   4.081   5.300
  946SOL    HW1 3019   4.512   4.121   5.263
  946SOL    HW2 3020   4.357   4.151   5.302
  947SOL     OW 3021   3.052   5.355   2.906
  947SOL    HW1 3022   3.114   5.300   2.961
  947SOL    HW2 3023   3.106   5.412   2.843
  948SOL     OW 3024   5.230   2.374   1.456
  948SOL    HW1 3025   5.287   2.452   1.431
  948SOL    HW2 3026   5.286   2.292   1.461
  949SOL     OW 3027   0.876   2.573   4.810
  949SOL    HW1 3028   0.970   2.552   4.781
  949SOL    HW2 3029   0.863   2.544   4.904
  950SOL     OW 3030   0.244   0.647   4.509
  950SOL    HW1 3031   0.342   0.629   4.512
  950SOL    HW2 3032   0.227   0.726   4.451
  951SOL     OW 3033   2.065   1.892   1.117
  951SOL    HW1 3034   1.973   1.914   1.086
  951SOL    HW2 3035   2.124   1.876   1.037
  952SOL     OW 3036   3.704   3.103   2.444
  952SOL    HW1 3037   3.641   3.084   2.519
  952SOL    HW2 3038   3.710   3.023   2.384
  953SOL     OW 3039   5.182   2.792   4.629
  953SOL    HW1 3040   5.160   2.885   4.600
  953SOL    HW2 3041   5.164   2.729   4.553
  954SOL     OW 3042   4.050   5.106   4.248
  954SOL    HW1 3043   4.039   5.033   4.316
  954SOL    HW2 3044   3.974   5.170   4.256
  955SOL     OW 3045   5.211   3.185   5.454
  955SOL    HW1 3046   5.309   3.168   5.464
  955SOL    HW2 3047   5.162   3.138   5.526
  956SOL     OW 3048   2.339   5.076   0.579
  956SOL    HW1 3049   2.356   4.982   0.607
  956SOL    HW2 3050   2.249   5.105   0.613
  957SOL     OW 3051   1.124   3.968   2.925
  957SOL    HW1 3052   1.122   4.068   2.928
  957SOL    HW2 3053   1.033   3.932   2.941
  958SOL     OW 3054   1.220   4.249   4.014
  958SOL    HW1 3055   1.305   4.228   4.063
  958SOL    HW2 3056   1.184   4.336   4.048
  959SOL     OW 3057   2.207   3.080   2.182
  959SOL    HW1 3058   2.266   3.078   2.101
  959SOL    HW2 3059   2.133   3.014   2.170
  960SOL     OW 3060   1.455   2.120   3.955
  960SOL    HW1 3061   1.550   2.151   3.950
  960SOL    HW2 3062   1.454   2.020   3.962
  961SOL     OW 3063   5.565   2.884   3.809
  961SOL    HW1 3064   5.559   2.903   3.711
  961SOL    HW2 3065   5.640   2.938   3.848
  962SOL     OW 3066   2.794   2.953   1.427
  962SOL    HW1 3067   2.733   3.029   1.451
  962SOL    HW2 3068   2.889   2.983   1.435
  963SOL     OW 3069   2.831   1.768   5.016
  963SOL    HW1 3070   2.776   1.721   5.085
  963SOL    HW2 3071   2.782   1.766   4.928
  964SOL     OW 3072   1.763   3.628   3.969
  964SOL    HW1 3073   1.685   3.565   3.970
  964SOL    HW2 3074   1.846   3.579   3.994
  965SOL     OW 3075   2.895   3.458   0.602
  965SOL    HW1 3076   2.831   3.530   0.573
  965SOL    HW2 3077   2.850   3.369   0.594
  966SOL     OW 3078   0.178   3.541   0.783
  966SOL    HW1 3079   0.150   3.586   0.868
  966SOL    HW2 3080   0.222   3.454   0.804
  967SOL     OW 3081   3.800   0.718   5.031
  967SOL    HW1 3082   3.709   0.677   5.021
  967SOL    HW2 3083   3.851   0.669   5.102
  968SOL     OW 3084   1.560   1.283   4.228
  968SOL    HW1 3085   1.602   1.206   4.180
  968SOL    HW2 3086   1.590   1.368   4.186
  969SOL     OW 3087   1.664   1.005   5.615
  969SOL    HW1 3088   1.694   1.098   5.597
  969SOL    HW2 3089   1.685   0.947   5.536
  970SOL     OW 3090   0.428   1.251   0.595
  970SOL    HW1 3091   0.401   1.341   0.561
  970SOL    HW2 3092   0.363   1.182   0.561
  971SOL     OW 3093   5.476   1.644   5.617
  971SOL    HW1 3094   5.410   1.622   5.545
  971SOL    HW2 3095   5.521   1.559   5.647
  972SOL     OW 3096   0.568   2.088   0.898
  972SOL    HW1 3097   0.513   2.070   0.979
  972SOL    HW2 3098   0.622   2.007   0.876
  973SOL     OW 3099   0.528   5.451   1.795
  973SOL    HW1 3100   0.471   5.372   1.774
  973SOL    HW2 3101   0.473   5.534   1.789
  974SOL     OW 3102   2.488   0.849   5.157
  974SOL    HW1 3103   2.429   0.822   5.081
  974SOL    HW2 3104   2.542   0.929   5.130
  975SOL     OW 3105   1.663   0.221   3.544
  975SOL    HW1 3106   1.742   0.164   3.521
  975SOL    HW2 3107   1.693   0.297   3.601
  976SOL     OW 3108   5.228   2.325   4.844
  976SOL    HW1 3109   5.146   2.382   4.848
  976SOL    HW2 3110   5.202   2.229   4.861
  977SOL     OW 3111   3.851   4.454   2.830
  977SOL    HW1 3112   3.791   4.528   2.860
  977SOL    HW2 3113   3.935   4.456   2.884
  978SOL     OW 3114   5.440   2.303   0.415
  978SOL    HW1 3115   5.449   2.243   0.336
  978SOL    HW2 3116   5.375   2.263   0.480
  979SOL     OW 3117   1.722   2.413   5.264
  979SOL    HW1 3118   1.690   2.318   5.272
  979SOL    HW2 3119   1.649   2.475   5.293
  980SOL     OW 3120   2.194   5.380   3.948
  980SOL    HW1 3121   2.098   5.361   3.924
  980SOL    HW2 3122   2.250   5.302   3.920
  981SOL     OW 3123   0.801   4.637   4.157
  981SOL    HW1 3124   0.791   4.726   4.111
  981SOL    HW2 3125   0.710   4.604   4.184
  982SOL     OW 3126   4.493   4.336   2.741
  982SOL    HW1 3127   4.418   4.322   2.807
  982SOL    HW2 3128   4.577   4.357   2.791
  983SOL     OW 3129   5.123   1.412   3.484
  983SOL    HW1 3130   5.169   1.339   3.535
  983SOL    HW2 3131   5.179   1.494   3.484
  984SOL     OW 3132   2.061   0.607   1.279
  984SOL    HW1 3133   2.152   0.585   1.315
  984SOL    HW2 3134   2.041   0.704   1.295
  985SOL     OW 3135   4.611   4.056   2.407
  985SOL    HW1 3136   4.670   4.136   2.400
  985SOL    HW2 3137   4.663   3.980   2.448
  986SOL     OW 3138   3.922   0.251   2.253
  986SOL    HW1 3139   3.994   0.271   2.319
  986SOL    HW2 3140   3.909   0.153   2.246
  987SOL     OW 3141   3.426   3.579   1.910
  987SOL    HW1 3142   3.444   3.676   1.896
  987SOL    HW2 3143   3.422   3.561   2.008
  988SOL     OW 3144   3.398   5.046   3.052
  988SOL    HW1 3145   3.390   4.946   3.049
  988SOL    HW2 3146   3.434   5.072   3.142
  989SOL     OW 3147   3.843   0.181   3.645
  989SOL    HW1 3148   3.770   0.245   3.620
  989SOL    HW2 3149   3.894   0.155   3.563
  990SOL     OW 3150   4.241   4.001   3.835
  990SOL    HW1 3151   4.292   4.020   3.751
  990SOL    HW2 3152   4.306   3.980   3.909
  991SOL     OW 3153   4.916   3.867   3.424
  991SOL    HW1 3154   4.876   3.900   3.339
  991SOL    HW2 3155   4.844   3.833   3.484
  992SOL     OW 3156   2.219   5.395   4.248
  992SOL    HW1 3157   2.181   5.453   4.177
  992SOL    HW2 3158   2.294   5.340   4.210
  993SOL     OW 3159   3.774   4.911   2.045
  993SOL    HW1 3160   3.786   4.902   2.144
  993SOL    HW2 3161   3.679   4.894   2.021
  994SOL     OW 3162   3.393   2.021   1.321
  994SOL    HW1 3163   3.366   2.111   1.288
  994SOL    HW2 3164   3.456   1.979   1.255
  995SOL     OW 3165   1.090   3.887   3.611
  995SOL    HW1 3166   1.171   3.841   3.646
  995SOL    HW2 3167   1.085   3.979   3.651
  996SOL     OW 3168   0.820   3.972   3.786
  996SOL    HW1 3169   0.780   3.910   3.853
  996SOL    HW2 3170   0.799   4.066   3.811
  997SOL     OW 3171   1.438   4.122   3.633
  997SOL    HW1 3172   1.467   4.093   3.725
  997SOL    HW2 3173   1.500   4.084   3.565
  998SOL     OW 3174   5.357   3.864   4.948
  998SOL    HW1 3175   5.262   3.835   4.955
  998SOL    HW2 3176   5.365   3.959   4.977
  999SOL     OW 3177   5.370   3.061   2.627
  999SOL    HW1 3178   5.425   2.978   2.632
  999SOL    HW2 3179   5.276   3.037   2.605
 1000SOL     OW 3180   4.703   0.706   2.381
 1000SOL    HW1 3181   4.800   0.696   2.358
 1000SOL    HW2 3182   4.679   0.803   2.380
 1001SOL     OW 3183   1.984   4.343   0.845
 1001SOL    HW1 3184   1.911   4.318   0.908
 1001SOL    HW2 3185   2.072   4.316   0.885
 1002SOL     OW 3186   2.970   1.068   2.442
 1002SOL    HW1 3187   2.878   1.032   2.460
 1002SOL    HW2 3188   2.999   1.040   2.351
 1003SOL     OW 3189   2.933   1.333   2.344
 1003SOL    HW1 3190   2.890   1.303   2.429
 1003SOL    HW2 3191   3.022   1.288   2.335
 1004SOL     OW 3192   0.535   5.592   2.403
 1004SOL    HW1 3193   0.581   5.514   2.361
 1004SOL    HW2 3194   0.451   5.560   2.449
 1005SOL     OW 3195   5.251   0.650   4.961
 1005SOL    HW1 3196   5.351   0.657   4.962
 1005SOL    HW2 3197   5.225   0.554   4.974
 1006SOL     OW 3198   5.147   3.238   1.068
 1006SOL    HW1 3199   5.101   3.323   1.041
 1006SOL    HW2 3200   5.163   3.240   1.167
 1007SOL     OW 3201   2.579   0.602   1.358
 1007SOL    HW1 3202   2.620   0.576   1.271
 1007SOL    HW2 3203   2.535   0.522   1.399
 1008SOL     OW 3204   1.750   3.453   5.316
 1008SOL    HW1 3205   1.655   3.423   5.301
 1008SOL    HW2 3206   1.809   3.372   5.321
 1009SOL     OW 3207   3.996   1.522   0.559
 1009SOL    HW1 3208   4.079   1.577   0.553
 1009SOL    HW2 3209   3.921   1.570   0.513
 1010SOL     OW 3210   3.076   0.527   4.581
 1010SOL    HW1 3211   3.101   0.440   4.539
 1010SOL    HW2 3212   2.997   0.566   4.533
 1011SOL     OW 3213   2.885   5.208   1.047
 1011SOL    HW1 3214   2.811   5.263   1.008
 1011SOL    HW2 3215   2.878   5.114   1.014
 1012SOL     OW 3216   1.730   1.221   5.447
 1012SOL    HW1 3217   1.809   1.252   5.394
 1012SOL    HW2 3218   1.646   1.249   5.401
 1013SOL     OW 3219   3.011   2.530   5.662
 1013SOL    HW1 3220   2.970   2.442   5.635
 1013SOL    HW2 3221   3.110   2.523   5.654
 1014SOL     OW 3222   1.436   3.067   1.513
 1014SOL    HW1 3223   1.358   3.116   1.554
 1014SOL    HW2 3224   1.510   3.062   1.581
 1015SOL     OW 3225   4.130   2.396   1.485
 1015SOL    HW1 3226   4.127   2.299   1.509
 1015SOL    HW2 3227   4.117   2.405   1.387
 1016SOL     OW 3228   3.552   2.126   5.589
 1016SOL    HW1 3229   3.577   2.052   5.652
 1016SOL    HW2 3230   3.501   2.088   5.512
 1017SOL     OW 3231   5.557   4.200   1.774
 1017SOL    HW1 3232   5.590   4.289   1.805
 1017SOL    HW2 3233   5.635   4.141   1.753
 1018SOL     OW 3234   0.760   0.245   1.865
 1018SOL    HW1 3235   0.746   0.318   1.798
 1018SOL    HW2 3236   0.671   0.213   1.897
 1019SOL     OW 3237   0.433   4.593   2.492
 1019SOL    HW1 3238   0.367   4.524   2.465
 1019SOL    HW2 3239   0.388   4.682   2.498
 1020SOL     OW 3240   0.685   1.354   1.826
 1020SOL    HW1 3241   0.735   1.273   1.796
 1020SOL    HW2 3242   0.746   1.433   1.826
 1021SOL     OW 3243   3.128   5.300   4.025
 1021SOL    HW1 3244   3.081   5.269   4.108
 1021SOL    HW2 3245   3.159   5.220   3.973
 1022SOL     OW 3246   4.180   3.018   4.071
 1022SOL    HW1 3247   4.265   2.965   4.074
 1022SOL    HW2 3248   4.123   2.993   4.150
 1023SOL     OW 3249   4.192   2.533   5.650
 1023SOL    HW1 3250   4.149   2.453   5.608
 1023SOL    HW2 3251   4.187   2.610   5.586
 1024SOL     OW 3252   0.439   0.694   0.376
 1024SOL    HW1 3253   0.494   0.644   0.443
 1024SOL    HW2 3254   0.363   0.637   0.347
 1025SOL     OW 3255   4.986   5.569   3.740
 1025SOL    HW1 3256   5.084   5.550   3.751
 1025SOL    HW2 3257   4.936   5.483   3.741
 1026SOL     OW 3258   2.105   0.465   4.596
 1026SOL    HW1 3259   2.039   0.397   4.627
 1026SOL    HW2 3260   2.179   0.420   4.548
 1027SOL     OW 3261   2.813   3.575   5.193
 1027SOL    HW1 3262   2.878   3.515   5.240
 1027SOL    HW2 3263   2.735   3.593   5.252
 1028SOL     OW 3264   4.701   0.422   2.599
 1028SOL    HW1 3265   4.632   0.433   2.527
 1028SOL    HW2 3266   4.791   0.411   2.557
 1029SOL     OW 3267   3.229   5.017   4.122
 1029SOL    HW1 3268   3.310   5.075   4.117
 1029SOL    HW2 3269   3.199   5.009   4.217
 1030SOL     OW 3270   4.110   2.799   4.253
 1030SOL    HW1 3271   4.048   2.721   4.264
 1030SOL    HW2 3272   4.204   2.766   4.252
 1031SOL     OW 3273   2.815   4.187   4.587
 1031SOL    HW1 3274   2.745   4.175   4.657
 1031SOL    HW2 3275   2.904   4.194   4.631
 1032SOL     OW 3276   4.951   5.169   3.947
 1032SOL    HW1 3277   4.896   5.236   3.996
 1032SOL    HW2 3278   5.034   5.151   3.999
 1033SOL     OW 3279   4.452   4.290   1.560
 1033SOL    HW1 3280   4.353   4.297   1.548
 1033SOL    HW2 3281   4.495   4.376   1.533
 1034SOL     OW 3282   0.841   0.238   0.818
 1034SOL    HW1 3283   0.905   0.162   0.816
 1034SOL    HW2 3284   0.890   0.323   0.804
 1035SOL     OW 3285   1.421   1.447   4.541
 1035SOL    HW1 3286   1.496   1.512   4.556
 1035SOL    HW2 3287   1.447   1.358   4.579
 1036SOL     OW 3288   1.685   1.904   5.317
 1036SOL    HW1 3289   1.600   1.876   5.362
 1036SOL    HW2 3290   1.691   2.004   5.317
 1037SOL     OW 3291   1.625   4.720   3.038
 1037SOL    HW1 3292   1.687   4.698   3.113
 1037SOL    HW2 3293   1.590   4.813   3.049
 1038SOL     OW 3294   4.785   4.304   1.206
 1038SOL    HW1 3295   4.839   4.247   1.145
 1038SOL    HW2 3296   4.765   4.391   1.162
 1039SOL     OW 3297   2.591   5.556   5.548
 1039SOL    HW1 3298   2.564   5.651   5.563
 1039SOL    HW2 3299   2.511   5.503   5.520
 1040SOL     OW 3300   0.709   2.669   5.081
 1040SOL    HW1 3301   0.754   2.750   5.042
 1040SOL    HW2 3302   0.614   2.666   5.049
 1041SOL     OW 3303   0.926   0.464   4.695
 1041SOL    HW1 3304   0.874   0.548   4.711
 1041SOL    HW2 3305   0.863   0.386   4.694
 1042SOL     OW 3306   1.091   4.341   2.540
 1042SOL    HW1 3307   1.042   4.417   2.584
 1042SOL    HW2 3308   1.183   4.371   2.514
 1043SOL     OW 3309   4.946   5.233   5.187
 1043SOL    HW1 3310   4.936   5.241   5.286
 1043SOL    HW2 3311   4.902   5.312   5.143
 1044SOL     OW 3312   5.521   3.166   5.470
 1044SOL    HW1 3313   5.538   3.208   5.559
 1044SOL    HW2 3314   5.594   3.190   5.407
 1045SOL     OW 3315   4.251   2.504   0.959
 1045SOL    HW1 3316   4.308   2.504   1.041
 1045SOL    HW2 3317   4.227   2.598   0.935
 1046SOL     OW 3318   1.539   5.026   4.623
 1046SOL    HW1 3319   1.487   5.110   4.614
 1046SOL    HW2 3320   1.500   4.971   4.697
 1047SOL     OW 3321   4.389   4.432   5.126
 1047SOL    HW1 3322   4.448   4.406   5.203
 1047SOL    HW2 3323   4.393   4.531   5.114
 1048SOL     OW 3324   1.428   4.884   3.575
 1048SOL    HW1 3325   1.442   4.816   3.647
 1048SOL    HW2 3326   1.330   4.899   3.561
 1049SOL     OW 3327   4.975   2.916   0.990
 1049SOL    HW1 3328   5.042   2.862   1.040
 1049SOL    HW2 3329   5.021   2.991   0.943
 1050SOL     OW 3330   2.984   5.394   0.186
 1050SOL    HW1 3331   2.947   5.484   0.205
 1050SOL    HW2 3332   2.915   5.339   0.138
 1051SOL     OW 3333   0.388   4.376   3.351
 1051SOL    HW1 3334   0.290   4.394   3.343
 1051SOL    HW2 3335   0.431   4.453   3.398
 1052SOL     OW 3336   1.439   5.048   5.397
 1052SOL    HW1 3337   1.479   5.024   5.308
 1052SOL    HW2 3338   1.482   4.991   5.468
 1053SOL     OW 3339   3.168   0.428   0.343
 1053SOL    HW1 3340   3.247   0.413   0.283
 1053SOL    HW2 3341   3.191   0.398   0.435
 1054SOL     OW 3342   5.282   2.032   4.819
 1054SOL    HW1 3343   5.370   1.991   4.796
 1054SOL    HW2 3344   5.211   1.962   4.814
 1055SOL     OW 3345   5.343   0.233   0.763
 1055SOL    HW1 3346   5.257   0.281   0.782
 1055SOL    HW2 3347   5.419   0.293   0.786
 1056SOL     OW 3348   1.913   2.492   4.225
 1056SOL    HW1 3349   1.900   2.449   4.135
 1056SOL    HW2 3350   1.997   2.545   4.224
 1057SOL     OW 3351   3.172   1.868   4.509
 1057SOL    HW1 3352   3.127   1.937   4.452
 1057SOL    HW2 3353   3.264   1.852   4.475
 1058SOL     OW 3354   3.684   0.248   5.147
 1058SOL    HW1 3355   3.686   0.325   5.084
 1058SOL    HW2 3356   3.642   0.277   5.233
 1059SOL     OW 3357   0.366   3.511   0.442
 1059SOL    HW1 3358   0.295   3.555   0.497
 1059SOL    HW2 3359   0.327   3.430   0.399
 1060SOL     OW 3360   5.294   5.484   1.838
 1060SOL    HW1 3361   5.319   5.469   1.743
 1060SOL    HW2 3362   5.362   5.544   1.880
 1061ETH      C 3363   4.088   3.820   3.013
 1061ETH     C1 3364   4.024   3.957   3.043
 1061ETH      O 3365   4.120   4.039   3.110
 1061ETH      H 3366   4.173   3.832   2.945
 1061ETH     H1 3367   4.015   3.753   2.966
 1061ETH     H2 3368   4.123   3.774   3.106
 1061ETH     H3 3369   3.990   4.003   2.949
 1061ETH     H4 3370   3.935   3.942   3.106
 1061ETH     H5 3371   4.152   3.986   3.185
 1062ETH      C 3372   1.138   1.956   4.978
 1062ETH     C1 3373   1.255   2.043   4.931
 1062ETH      O 3374   1.362   2.034   5.025
 1062ETH      H 3375   1.165   1.850   4.979
 1062ETH     H1 3376   1.053   1.968   4.909
 1062ETH     H2 3377   1.104   1.984   5.078
 1062ETH     H3 3378   1.289   2.010   4.832
 1062ETH     H4 3379   1.221   2.147   4.923
 1062ETH     H5 3380   1.322   2.023   5.113
 1063ETH      C 3381   1.964   3.350   2.596
 1063ETH     C1 3382   2.083   3.320   2.504
 1063ETH      O 3383   2.041   3.217   2.416
 1063ETH      H 3384   1.877   3.379   2.536
 1063ETH     H1 3385   1.989   3.431   2.665
 1063ETH     H2 3386   1.938   3.261   2.654
 1063ETH     H3 3387   2.110   3.410   2.447
 1063ETH     H4 3388   2.170   3.290   2.562
 1063ETH     H5 3389   2.054   3.132   2.462
 1064ETH      C 3390   4.733   0.901   1.229
 1064ETH     C1 3391   4.851   0.896   1.131
 1064ETH      O 3392   4.969   0.948   1.192
 1064ETH      H 3393   4.753   0.839   1.317
 1064ETH     H1 3394   4.642   0.861   1.181
 1064ETH     H2 3395   4.712   1.003   1.261
 1064ETH     H3 3396   4.868   0.792   1.101
 1064ETH     H4 3397   4.826   0.953   1.041
 1064ETH     H5 3398   4.946   1.034   1.231
 1065ETH      C 3399   2.964   2.334   4.286
 1065ETH     C1 3400   3.025   2.268   4.163
 1065ETH      O 3401   2.926   2.276   4.064
 1065ETH      H 3402   2.944   2.439   4.266
 1065ETH     H1 3403   3.033   2.323   4.371
 1065ETH     H2 3404   2.869   2.286   4.313
 1065ETH     H3 3405   3.116   2.322   4.132
 1065ETH     H4 3406   3.051   2.164   4.184
 1065ETH     H5 3407   2.849   2.224   4.094
 1066ETH      C 3408   1.108   0.892   0.402
 1066ETH     C1 3409   1.096   0.936   0.548
 1066ETH      O 3410   1.110   1.077   0.557
 1066ETH      H 3411   1.030   0.938   0.341
 1066ETH     H1 3412   1.097   0.783   0.396
 1066ETH     H2 3413   1.206   0.919   0.361
 1066ETH     H3 3414   0.998   0.905   0.586
 1066ETH     H4 3415   1.174   0.886   0.608
 1066ETH     H5 3416   1.194   1.101   0.514
 1067ETH      C 3417   5.236   2.733   2.546
 1067ETH     C1 3418   5.329   2.715   2.426
 1067ETH      O 3419   5.458   2.675   2.471
 1067ETH      H 3420   5.227   2.640   2.602
 1067ETH     H1 3421   5.136   2.764   2.514
 1067ETH     H2 3422   5.275   2.810   2.614
 1067ETH     H3 3423   5.286   2.637   2.361
 1067ETH     H4 3424   5.334   2.808   2.368
 1067ETH     H5 3425   5.485   2.736   2.542
 1068ETH      C 3426   3.063   5.560   0.532
 1068ETH     C1 3427   3.181   5.486   0.595
 1068ETH      O 3428   3.273   5.450   0.492
 1068ETH      H 3429   3.098   5.651   0.481
 1068ETH     H1 3430   2.990   5.589   0.609
 1068ETH     H2 3431   3.012   5.496   0.458
 1068ETH     H3 3432   3.229   5.551   0.669
 1068ETH     H4 3433   3.145   5.396   0.647
 1068ETH     H5 3434   3.234   5.376   0.443
 1069ETH      C 3435   2.024   2.556   4.633
 1069ETH     C1 3436   2.082   2.416   4.608
 1069ETH      O 3437   2.149   2.415   4.483
 1069ETH      H 3438   2.105   2.630   4.641
 1069ETH     H1 3439   1.968   2.557   4.727
 1069ETH     H2 3440   1.956   2.586   4.553
 1069ETH     H3 3441   2.151   2.389   4.689
 1069ETH     H4 3442   2.000   2.342   4.608
 1069ETH     H5 3443   2.085   2.451   4.419
 1070ETH      C 3444   5.157   3.689   0.929
 1070ETH     C1 3445   5.230   3.557   0.904
 1070ETH      O 3446   5.317   3.534   1.013
 1070ETH      H 3447   5.100   3.685   1.022
 1070ETH     H1 3448   5.088   3.710   0.846
 1070ETH     H2 3449   5.229   3.772   0.935
 1070ETH     H3 3450   5.157   3.476   0.894
 1070ETH     H4 3451   5.286   3.564   0.810
 1070ETH     H5 3452   5.384   3.604   1.010
 1071ETH      C 3453   0.388   3.631   5.298
 1071ETH     C1 3454   0.263   3.719   5.285
 1071ETH      O 3455   0.255   3.773   5.154
 1071ETH      H 3456   0.384   3.549   5.225
 1071ETH     H1 3457   0.393   3.587   5.398
 1071ETH     H2 3458   0.480   3.689   5.281
 1071ETH     H3 3459   0.174   3.659   5.306
 1071ETH     H4 3460   0.267   3.800   5.360
 1071ETH     H5 3461   0.336   3.825   5.136
 1072ETH      C 3462   4.276   2.340   5.213
 1072ETH     C1 3463   4.148   2.413   5.170
 1072ETH      O 3464   4.173   2.552   5.153
 1072ETH      H 3465   4.353   2.345   5.135
 1072ETH     H1 3466   4.254   2.234   5.232
 1072ETH     H2 3467   4.317   2.382   5.306
 1072ETH     H3 3468   4.112   2.370   5.075
 1072ETH     H4 3469   4.070   2.397   5.246
 1072ETH     H5 3470   4.234   2.581   5.223
 1073ETH      C 3471   2.432   0.837   2.041
 1073ETH     C1 3472   2.468   0.784   1.901
 1073ETH      O 3473   2.508   0.892   1.818
 1073ETH      H 3474   2.519   0.885   2.087
 1073ETH     H1 3475   2.400   0.754   2.105
 1073ETH     H2 3476   2.350   0.910   2.036
 1073ETH     H3 3477   2.549   0.711   1.911
 1073ETH     H4 3478   2.381   0.733   1.858
 1073ETH     H5 3479   2.440   0.961   1.825
 1074ETH      C 3480   3.914   4.880   0.366
 1074ETH     C1 3481   3.976   4.870   0.226
 1074ETH      O 3482   4.100   4.937   0.224
 1074ETH      H 3483   3.978   4.833   0.442
 1074ETH     H1 3484   3.817   4.829   0.368
 1074ETH     H2 3485   3.898   4.985   0.394
 1074ETH     H3 3486   3.990   4.764   0.201
 1074ETH     H4 3487   3.908   4.914   0.153
 1074ETH     H5 3488   4.086   5.028   0.256
 1075ETH      C 3489   2.517   2.570   1.497
 1075ETH     C1 3490   2.518   2.652   1.367
 1075ETH      O 3491   2.542   2.566   1.257
 1075ETH      H 3492   2.435   2.497   1.497
 1075ETH     H1 3493   2.505   2.635   1.584
 1075ETH     H2 3494   2.612   2.516   1.509
 1075ETH     H3 3495   2.422   2.704   1.357
 1075ETH     H4 3496   2.597   2.728   1.374
 1075ETH     H5 3497   2.611   2.504   1.285
 1076ETH      C 3498   3.070   3.292   4.131
 1076ETH     C1 3499   3.212   3.301   4.191
 1076ETH      O 3500   3.229   3.426   4.256
 1076ETH      H 3501   2.994   3.302   4.209
 1076ETH     H1 3502   3.055   3.196   4.080
 1076ETH     H2 3503   3.057   3.372   4.057
 1076ETH     H3 3504   3.226   3.218   4.261
 1076ETH     H4 3505   3.285   3.290   4.110
 1076ETH     H5 3506   3.198   3.495   4.194
 1077ETH      C 3507   2.439   5.531   3.419
 1077ETH     C1 3508   2.308   5.462   3.379
 1077ETH      O 3509   2.270   5.368   3.480
 1077ETH      H 3510   2.427   5.584   3.514
 1077ETH     H1 3511   2.469   5.604   3.343
 1077ETH     H2 3512   2.521   5.458   3.430
 1077ETH     H3 3513   2.230   5.537   3.365
 1077ETH     H4 3514   2.323   5.410   3.283
 1077ETH     H5 3515   2.342   5.303   3.485
 1078ETH      C 3516   0.617   1.000   2.305
 1078ETH     C1 3517   0.736   1.081   2.254
 1078ETH      O 3518   0.758   1.193   2.339
 1078ETH      H 3519   0.639   0.961   2.405
 1078ETH     H1 3520   0.596   0.915   2.239
 1078ETH     H2 3521   0.526   1.062   2.311
 1078ETH     H3 3522   0.825   1.017   2.251
 1078ETH     H4 3523   0.715   1.115   2.152
 1078ETH     H5 3524   0.669   1.226   2.364
 1079ETH      C 3525   0.566   4.779   3.348
 1079ETH     C1 3526   0.715   4.743   3.354
 1079ETH      O 3527   0.763   4.716   3.223
 1079ETH      H 3528   0.550   4.868   3.286
 1079ETH     H1 3529   0.527   4.800   3.448
 1079ETH     H2 3530   0.507   4.697   3.305
 1079ETH     H3 3531   0.771   4.826   3.399
 1079ETH     H4 3532   0.728   4.654   3.418
 1079ETH     H5 3533   0.709   4.645   3.185
 1080ETH      C 3534   1.882   4.635   0.919
 1080ETH     C1 3535   1.810   4.768   0.942
 1080ETH      O 3536   1.731   4.800   0.828
 1080ETH      H 3537   1.810   4.554   0.905
 1080ETH     H1 3538   1.945   4.610   1.006
 1080ETH     H2 3539   1.947   4.639   0.831
 1080ETH     H3 3540   1.746   4.759   1.031
 1080ETH     H4 3541   1.884   4.847   0.961
 1080ETH     H5 3542   1.784   4.782   0.749
 1081ETH      C 3543   5.029   0.892   1.687
 1081ETH     C1 3544   4.892   0.869   1.621
 1081ETH      O 3545   4.878   0.960   1.513
 1081ETH      H 3546   5.109   0.874   1.614
 1081ETH     H1 3547   5.042   0.824   1.772
 1081ETH     H2 3548   5.036   0.995   1.723
 1081ETH     H3 3549   4.886   0.765   1.584
 1081ETH     H4 3550   4.812   0.883   1.695
 1081ETH     H5 3551   4.864   1.048   1.553
 1082ETH      C 3552   3.033   4.495   5.388
 1082ETH     C1 3553   3.130   4.511   5.271
 1082ETH      O 3554   3.055   4.548   5.156
 1082ETH      H 3555   2.975   4.587   5.404
 1082ETH     H1 3556   3.086   4.469   5.480
 1082ETH     H2 3557   2.963   4.414   5.365
 1082ETH     H3 3558   3.204   4.589   5.295
 1082ETH     H4 3559   3.183   4.417   5.254
 1082ETH     H5 3560   3.001   4.471   5.130
 1083ETH      C 3561   2.559   1.347   2.471
 1083ETH     C1 3562   2.552   1.225   2.562
 1083ETH      O 3563   2.415   1.189   2.580
 1083ETH      H 3564   2.522   1.322   2.371
 1083ETH     H1 3565   2.662   1.382   2.461
 1083ETH     H2 3566   2.498   1.429   2.511
 1083ETH     H3 3567   2.608   1.142   2.517
 1083ETH     H4 3568   2.597   1.248   2.659
 1083ETH     H5 3569   2.368   1.265   2.618
 1084ETH      C 3570   1.936   2.599   0.739
 1084ETH     C1 3571   2.034   2.700   0.800
 1084ETH      O 3572   2.160   2.636   0.820
 1084ETH      H 3573   1.971   2.568   0.640
 1084ETH     H1 3574   1.836   2.644   0.729
 1084ETH     H2 3575   1.927   2.510   0.803
 1084ETH     H3 3576   2.044   2.786   0.733
 1084ETH     H4 3577   1.994   2.737   0.896
 1084ETH     H5 3578   2.141   2.553   0.867
 1085ETH      C 3579   0.922   4.466   0.842
 1085ETH     C1 3580   0.773   4.430   0.850
 1085ETH      O 3581   0.694   4.545   0.820
 1085ETH      H 3582   0.946   4.504   0.742
 1085ETH     H1 3583   0.983   4.377   0.861
 1085ETH     H2 3584   0.947   4.543   0.916
 1085ETH     H3 3585   0.751   4.350   0.778
 1085ETH     H4 3586   0.749   4.392   0.951
 1085ETH     H5 3587   0.715   4.614   0.885
 1086ETH      C 3588   1.742   2.725   3.565
 1086ETH     C1 3589   1.758   2.609   3.466
 1086ETH      O 3590   1.639   2.532   3.465
 1086ETH      H 3591   1.658   2.789   3.534
 1086ETH     H1 3592   1.833   2.787   3.567
 1086ETH     H2 3593   1.722   2.689   3.666
 1086ETH     H3 3594   1.778   2.649   3.366
 1086ETH     H4 3595   1.843   2.547   3.495
 1086ETH     H5 3596   1.634   2.485   3.550
 1087ETH      C 3597   2.150   3.964   1.179
 1087ETH     C1 3598   2.104   4.109   1.197
 1087ETH      O 3599   2.096   4.173   1.070
 1087ETH      H 3600   2.078   3.907   1.119
 1087ETH     H1 3601   2.160   3.914   1.276
 1087ETH     H2 3602   2.248   3.960   1.129
 1087ETH     H3 3603   2.006   4.110   1.247
 1087ETH     H4 3604   2.175   4.162   1.262
 1087ETH     H5 3605   2.180   4.151   1.025
 1088ETH      C 3606   1.234   2.656   2.294
 1088ETH     C1 3607   1.143   2.666   2.417
 1088ETH      O 3608   1.033   2.752   2.392
 1088ETH      H 3609   1.184   2.604   2.211
 1088ETH     H1 3610   1.324   2.597   2.318
 1088ETH     H2 3611   1.266   2.755   2.259
 1088ETH     H3 3612   1.107   2.566   2.444
 1088ETH     H4 3613   1.201   2.705   2.501
 1088ETH     H5 3614   1.061   2.821   2.329
 1089ETH      C 3615   1.157   5.489   2.247
 1089ETH     C1 3616   1.290   5.563   2.230
 1089ETH      O 3617   1.397   5.474   2.258
 1089ETH      H 3618   1.151   5.404   2.179
 1089ETH     H1 3619   1.073   5.557   2.225
 1089ETH     H2 3620   1.145   5.453   2.349
 1089ETH     H3 3621   1.298   5.600   2.127
 1089ETH     H4 3622   1.293   5.650   2.298
 1089ETH     H5 3623   1.382   5.436   2.347
 1090ETH      C 3624   3.237   4.889   3.760
 1090ETH     C1 3625   3.218   5.024   3.692
 1090ETH      O 3626   3.141   5.107   3.779
 1090ETH      H 3627   3.289   4.903   3.856
 1090ETH     H1 3628   3.296   4.821   3.698
 1090ETH     H2 3629   3.140   4.842   3.780
 1090ETH     H3 3630   3.315   5.069   3.671
 1090ETH     H4 3631   3.166   5.010   3.596
 1090ETH     H5 3632   3.052   5.068   3.785
 1091ETH      C 3633   1.073   2.552   1.960
 1091ETH     C1 3634   0.934   2.594   2.009
 1091ETH      O 3635   0.935   2.608   2.150
 1091ETH      H 3636   1.148   2.629   1.982
 1091ETH     H1 3637   1.071   2.537   1.851
 1091ETH     H2 3638   1.104   2.457   2.006
 1091ETH     H3 3639   0.905   2.689   1.962
 1091ETH     H4 3640   0.861   2.517   1.980
 1091ETH     H5 3641   0.970   2.526   2.189
 1092ETH      C 3642   4.215   3.438   2.871
 1092ETH     C1 3643   4.098   3.370   2.943
 1092ETH      O 3644   4.143   3.313   3.065
 1092ETH      H 3645   4.257   3.519   2.932
 1092ETH     H1 3646   4.182   3.481   2.776
 1092ETH     H2 3647   4.295   3.366   2.850
 1092ETH     H3 3648   4.019   3.444   2.962
 1092ETH     H4 3649   4.056   3.292   2.878
 1092ETH     H5 3650   4.207   3.243   3.041
 1093ETH      C 3651   0.580   5.393   1.303
 1093ETH     C1 3652   0.640   5.364   1.441
 1093ETH      O 3653   0.780   5.341   1.426
 1093ETH      H 3654   0.628   5.481   1.259
 1093ETH     H1 3655   0.472   5.412   1.311
 1093ETH     H2 3656   0.594   5.307   1.236
 1093ETH     H3 3657   0.622   5.449   1.508
 1093ETH     H4 3658   0.591   5.276   1.485
 1093ETH     H5 3659   0.792   5.268   1.363
 1094ETH      C 3660   1.397   4.210   5.555
 1094ETH     C1 3661   1.255   4.187   5.502
 1094ETH      O 3662   1.190   4.313   5.491
 1094ETH      H 3663   1.454   4.273   5.486
 1094ETH     H1 3664   1.450   4.114   5.566
 1094ETH     H2 3665   1.394   4.259   5.653
 1094ETH     H3 3666   1.261   4.136   5.405
 1094ETH     H4 3667   1.200   4.121   5.571
 1094ETH     H5 3668   1.183   4.350   5.580
 1095ETH      C 3669   3.445   4.635   4.579
 1095ETH     C1 3670   3.479   4.771   4.516
 1095ETH      O 3671   3.368   4.816   4.439
 1095ETH      H 3672   3.360   4.643   4.647
 1095ETH     H1 3673   3.531   4.597   4.636
 1095ETH     H2 3674   3.421   4.561   4.501
 1095ETH     H3 3675   3.502   4.842   4.596
 1095ETH     H4 3676   3.568   4.761   4.454
 1095ETH     H5 3677   3.349   4.747   4.372
 1096ETH      C 3678   2.895   0.623   2.365
 1096ETH     C1 3679   2.886   0.773   2.391
 1096ETH      O 3680   2.943   0.843   2.281
 1096ETH      H 3681   2.837   0.596   2.276
 1096ETH     H1 3682   2.855   0.567   2.450
 1096ETH     H2 3683   2.999   0.593   2.350
 1096ETH     H3 3684   2.781   0.802   2.405
 1096ETH     H4 3685   2.939   0.797   2.484
 1096ETH     H5 3686   3.030   0.803   2.262
 1097ETH      C 3687   1.578   2.341   4.414
 1097ETH     C1 3688   1.723   2.346   4.465
 1097ETH      O 3689   1.738   2.258   4.576
 1097ETH      H 3690   1.552   2.240   4.381
 1097ETH     H1 3691   1.566   2.409   4.329
 1097ETH     H2 3692   1.508   2.372   4.493
 1097ETH     H3 3693   1.791   2.316   4.383
 1097ETH     H4 3694   1.749   2.449   4.493
 1097ETH     H5 3695   1.669   2.281   4.640
 1098ETH      C 3696   3.605   1.231   4.236
 1098ETH     C1 3697   3.458   1.278   4.241
 1098ETH      O 3698   3.394   1.251   4.116
 1098ETH      H 3699   3.611   1.123   4.221
 1098ETH     H1 3700   3.655   1.256   4.330
 1098ETH     H2 3701   3.659   1.281   4.154
 1098ETH     H3 3702   3.406   1.225   4.323
 1098ETH     H4 3703   3.455   1.385   4.262
 1098ETH     H5 3704   3.453   1.282   4.046
 1099ETH      C 3705   2.308   1.313   4.617
 1099ETH     C1 3706   2.232   1.446   4.619
 1099ETH      O 3707   2.094   1.421   4.648
 1099ETH      H 3708   2.306   1.266   4.716
 1099ETH     H1 3709   2.412   1.329   4.589
 1099ETH     H2 3710   2.264   1.244   4.544
 1099ETH     H3 3711   2.276   1.512   4.695
 1099ETH     H4 3712   2.242   1.495   4.522
 1099ETH     H5 3713   2.065   1.354   4.585
 1100ETH      C 3714   4.927   1.605   2.162
 1100ETH     C1 3715   4.842   1.717   2.224
 1100ETH      O 3716   4.712   1.717   2.166
 1100ETH      H 3717   4.881   1.508   2.179
 1100ETH     H1 3718   5.027   1.605   2.208
 1100ETH     H2 3719   4.939   1.620   2.054
 1100ETH     H3 3720   4.834   1.701   2.333
 1100ETH     H4 3721   4.891   1.814   2.208
 1100ETH     H5 3722   4.722   1.732   2.070
 1101ETH      C 3723   4.790   3.200   3.945
 1101ETH     C1 3724   4.680   3.101   3.987
 1101ETH      O 3725   4.736   2.973   4.014
 1101ETH      H 3726   4.862   3.214   4.027
 1101ETH     H1 3727   4.745   3.298   3.922
 1101ETH     H2 3728   4.843   3.165   3.856
 1101ETH     H3 3729   4.628   3.139   4.075
 1101ETH     H4 3730   4.607   3.093   3.905
 1101ETH     H5 3731   4.796   2.950   3.941
 1102ETH      C 3732   2.382   3.677   4.860
 1102ETH     C1 3733   2.438   3.540   4.819
 1102ETH      O 3734   2.541   3.501   4.910
 1102ETH      H 3735   2.338   3.672   4.961
 1102ETH     H1 3736   2.303   3.708   4.790
 1102ETH     H2 3737   2.460   3.754   4.859
 1102ETH     H3 3738   2.357   3.466   4.820
 1102ETH     H4 3739   2.478   3.546   4.717
 1102ETH     H5 3740   2.606   3.573   4.914
 1103ETH      C 3741   4.381   2.856   3.691
 1103ETH     C1 3742   4.335   2.978   3.772
 1103ETH      O 3743   4.323   3.089   3.684
 1103ETH      H 3744   4.306   2.830   3.615
 1103ETH     H1 3745   4.393   2.769   3.757
 1103ETH     H2 3746   4.476   2.875   3.641
 1103ETH     H3 3747   4.238   2.956   3.819
 1103ETH     H4 3748   4.408   2.999   3.851
 1103ETH     H5 3749   4.411   3.106   3.646
 1104ETH      C 3750   0.749   3.863   4.970
 1104ETH     C1 3751   0.755   3.841   4.819
 1104ETH      O 3752   0.790   3.706   4.793
 1104ETH      H 3753   0.674   3.797   5.015
 1104ETH     H1 3754   0.720   3.967   4.993
 1104ETH     H2 3755   0.846   3.843   5.017
 1104ETH     H3 3756   0.657   3.864   4.774
 1104ETH     H4 3757   0.829   3.910   4.775
 1104ETH     H5 3758   0.881   3.690   4.824
 1105ETH      C 3759   0.472   3.338   1.372
 1105ETH     C1 3760   0.406   3.472   1.405
 1105ETH      O 3761   0.455   3.573   1.316
 1105ETH      H 3762   0.449   3.307   1.270
 1105ETH     H1 3763   0.435   3.260   1.441
 1105ETH     H2 3764   0.581   3.344   1.383
 1105ETH     H3 3765   0.298   3.463   1.394
 1105ETH     H4 3766   0.428   3.500   1.509
 1105ETH     H5 3767   0.552   3.570   1.318
 1106ETH      C 3768   3.776   2.891   3.074
 1106ETH     C1 3769   3.681   2.844   2.963
 1106ETH      O 3770   3.746   2.861   2.838
 1106ETH      H 3771   3.868   2.830   3.072
 1106ETH     H1 3772   3.729   2.879   3.172
 1106ETH     H2 3773   3.803   2.996   3.060
 1106ETH     H3 3774   3.655   2.739   2.978
 1106ETH     H4 3775   3.589   2.903   2.966
 1106ETH     H5 3776   3.757   2.957   2.823
 1107ETH      C 3777   3.759   4.357   2.208
 1107ETH     C1 3778   3.704   4.218   2.240
 1107ETH      O 3779   3.614   4.179   2.136
 1107ETH      H 3780   3.810   4.355   2.111
 1107ETH     H1 3781   3.830   4.389   2.284
 1107ETH     H2 3782   3.678   4.431   2.203
 1107ETH     H3 3783   3.788   4.147   2.245
 1107ETH     H4 3784   3.654   4.219   2.337
 1107ETH     H5 3785   3.545   4.247   2.130
 1108ETH      C 3786   0.451   3.907   0.785
 1108ETH     C1 3787   0.390   3.785   0.854
 1108ETH      O 3788   0.474   3.745   0.962
 1108ETH      H 3789   0.463   3.990   0.856
 1108ETH     H1 3790   0.387   3.940   0.703
 1108ETH     H2 3791   0.550   3.882   0.744
 1108ETH     H3 3792   0.290   3.810   0.891
 1108ETH     H4 3793   0.380   3.703   0.781
 1108ETH     H5 3794   0.556   3.711   0.923
 1109ETH      C 3795   1.426   0.503   0.602
 1109ETH     C1 3796   1.361   0.634   0.648
 1109ETH      O 3797   1.432   0.743   0.591
 1109ETH      H 3798   1.422   0.493   0.493
 1109ETH     H1 3799   1.375   0.417   0.646
 1109ETH     H2 3800   1.532   0.499   0.633
 1109ETH     H3 3801   1.256   0.636   0.615
 1109ETH     H4 3802   1.363   0.640   0.757
 1109ETH     H5 3803   1.523   0.740   0.626
 1110ETH      C 3804   1.101   1.194   4.179
 1110ETH     C1 3805   1.207   1.279   4.108
 1110ETH      O 3806   1.297   1.192   4.040
 1110ETH      H 3807   1.044   1.135   4.105
 1110ETH     H1 3808   1.031   1.257   4.235
 1110ETH     H2 3809   1.148   1.124   4.249
 1110ETH     H3 3810   1.159   1.347   4.038
 1110ETH     H4 3811   1.262   1.338   4.183
 1110ETH     H5 3812   1.346   1.145   4.110
 1111ETH      C 3813   4.142   2.302   4.752
 1111ETH     C1 3814   4.237   2.415   4.793
 1111ETH      O 3815   4.327   2.443   4.686
 1111ETH      H 3816   4.084   2.332   4.663
 1111ETH     H1 3817   4.071   2.280   4.832
 1111ETH     H2 3818   4.197   2.211   4.728
 1111ETH     H3 3819   4.179   2.505   4.818
 1111ETH     H4 3820   4.293   2.385   4.883
 1111ETH     H5 3821   4.376   2.362   4.666
 1112ETH      C 3822   0.853   4.469   0.400
 1112ETH     C1 3823   0.817   4.403   0.266
 1112ETH      O 3824   0.787   4.505   0.172
 1112ETH      H 3825   0.942   4.532   0.389
 1112ETH     H1 3826   0.873   4.392   0.476
 1112ETH     H2 3827   0.771   4.531   0.436
 1112ETH     H3 3828   0.902   4.342   0.232
 1112ETH     H4 3829   0.731   4.336   0.279
 1112ETH     H5 3830   0.705   4.548   0.202
 1113ETH      C 3831   0.810   5.404   3.560
 1113ETH     C1 3832   0.826   5.445   3.413
 1113ETH      O 3833   0.770   5.574   3.394
 1113ETH      H 3834   0.861   5.476   3.625
 1113ETH     H1 3835   0.853   5.305   3.577
 1113ETH     H2 3836   0.704   5.401   3.588
 1113ETH     H3 3837   0.933   5.445   3.387
 1113ETH     H4 3838   0.776   5.371   3.349
 1113ETH     H5 3839   0.675   5.568   3.414
 1114ETH      C 3840   4.057   0.519   2.879
 1114ETH     C1 3841   4.043   0.375   2.829
 1114ETH      O 3842   4.114   0.286   2.916
 1114ETH      H 3843   4.016   0.529   2.980
 1114ETH     H1 3844   4.001   0.587   2.813
 1114ETH     H2 3845   4.161   0.551   2.880
 1114ETH     H3 3846   3.936   0.348   2.828
 1114ETH     H4 3847   4.081   0.366   2.727
 1114ETH     H5 3848   4.205   0.319   2.923
 1115ETH      C 3849   4.980   0.921   4.784
 1115ETH     C1 3850   5.069   1.040   4.821
 1115ETH      O 3851   5.201   0.993   4.848
 1115ETH      H 3852   5.017   0.871   4.694
 1115ETH     H1 3853   4.878   0.956   4.764
 1115ETH     H2 3854   4.976   0.849   4.866
 1115ETH     H3 3855   5.071   1.112   4.738
 1115ETH     H4 3856   5.028   1.091   4.909
 1115ETH     H5 3857   5.193   0.919   4.910
 1116ETH      C 3858   2.503   2.527   1.990
 1116ETH     C1 3859   2.589   2.654   1.999
 1116ETH      O 3860   2.510   2.757   2.059
 1116ETH      H 3861   2.472   2.494   2.090
 1116ETH     H1 3862   2.561   2.446   1.944
 1116ETH     H2 3863   2.414   2.545   1.929
 1116ETH     H3 3864   2.679   2.634   2.058
 1116ETH     H4 3865   2.620   2.684   1.898
 1116ETH     H5 3866   2.436   2.775   1.999
 1117ETH      C 3867   1.940   3.217   0.644
 1117ETH     C1 3868   1.857   3.248   0.518
 1117ETH      O 3869   1.858   3.388   0.497
 1117ETH      H 3870   2.044   3.247   0.630
 1117ETH     H1 3871   1.936   3.110   0.666
 1117ETH     H2 3872   1.900   3.272   0.731
 1117ETH     H3 3873   1.900   3.195   0.432
 1117ETH     H4 3874   1.754   3.213   0.531
 1117ETH     H5 3875   1.807   3.425   0.572
 1118ETH      C 3876   1.029   2.063   4.196
 1118ETH     C1 3877   1.134   1.951   4.188
 1118ETH      O 3878   1.258   2.000   4.240
 1118ETH      H 3879   1.012   2.091   4.301
 1118ETH     H1 3880   0.935   2.029   4.153
 1118ETH     H2 3881   1.063   2.152   4.141
 1118ETH     H3 3882   1.100   1.864   4.244
 1118ETH     H4 3883   1.147   1.921   4.083
 1118ETH     H5 3884   1.285   2.075   4.185
 1119ETH      C 3885   2.090   1.254   2.451
 1119ETH     C1 3886   2.039   1.307   2.586
 1119ETH      O 3887   2.080   1.443   2.605
 1119ETH      H 3888   2.050   1.313   2.368
 1119ETH     H1 3889   2.060   1.149   2.438
 1119ETH     H2 3890   2.200   1.258   2.446
 1119ETH     H3 3891   1.929   1.301   2.588
 1119ETH     H4 3892   2.078   1.245   2.667
 1119ETH     H5 3893   2.175   1.447   2.585
 1120ETH      C 3894   3.463   1.397   0.846
 1120ETH     C1 3895   3.452   1.395   0.999
 1120ETH      O 3896   3.515   1.511   1.052
 1120ETH      H 3897   3.418   1.488   0.806
 1120ETH     H1 3898   3.410   1.311   0.803
 1120ETH     H2 3899   3.568   1.393   0.814
 1120ETH     H3 3900   3.346   1.393   1.028
 1120ETH     H4 3901   3.499   1.304   1.038
 1120ETH     H5 3902   3.612   1.499   1.044
 1121ETH      C 3903   3.891   5.399   3.521
 1121ETH     C1 3904   3.773   5.305   3.543
 1121ETH      O 3905   3.659   5.364   3.483
 1121ETH      H 3906   3.906   5.420   3.414
 1121ETH     H1 3907   3.982   5.350   3.558
 1121ETH     H2 3908   3.877   5.493   3.575
 1121ETH     H3 3909   3.795   5.208   3.496
 1121ETH     H4 3910   3.758   5.289   3.650
 1121ETH     H5 3911   3.642   5.448   3.530
 1122ETH      C 3912   4.923   4.957   4.750
 1122ETH     C1 3913   4.865   4.854   4.652
 1122ETH      O 3914   4.855   4.728   4.719
 1122ETH      H 3915   4.857   4.969   4.837
 1122ETH     H1 3916   4.934   5.055   4.702
 1122ETH     H2 3917   5.022   4.925   4.784
 1122ETH     H3 3918   4.767   4.888   4.616
 1122ETH     H4 3919   4.931   4.844   4.566
 1122ETH     H5 3920   4.944   4.709   4.752
 1123ETH      C 3921   1.806   3.133   3.921
 1123ETH     C1 3922   1.727   3.041   4.015
 1123ETH      O 3923   1.614   3.113   4.064
 1123ETH      H 3924   1.742   3.166   3.838
 1123ETH     H1 3925   1.892   3.080   3.879
 1123ETH     H2 3926   1.842   3.221   3.976
 1123ETH     H3 3927   1.694   2.952   3.959
 1123ETH     H4 3928   1.790   3.007   4.098
 1123ETH     H5 3929   1.639   3.162   4.144
 1124ETH      C 3930   4.508   2.635   2.528
 1124ETH     C1 3931   4.421   2.608   2.651
 1124ETH      O 3932   4.328   2.716   2.663
 1124ETH      H 3933   4.446   2.645   2.439
 1124ETH     H1 3934   4.578   2.552   2.512
 1124ETH     H2 3935   4.567   2.727   2.542
 1124ETH     H3 3936   4.367   2.514   2.637
 1124ETH     H4 3937   4.483   2.599   2.741
 1124ETH     H5 3938   4.366   2.784   2.722
 1125ETH      C 3939   3.900   1.030   1.033
 1125ETH     C1 3940   3.948   0.999   0.891
 1125ETH      O 3941   4.081   1.048   0.875
 1125ETH      H 3942   3.964   0.980   1.107
 1125ETH     H1 3943   3.797   0.995   1.047
 1125ETH     H2 3944   3.903   1.138   1.053
 1125ETH     H3 3945   3.945   0.891   0.874
 1125ETH     H4 3946   3.881   1.047   0.818
 1125ETH     H5 3947   4.080   1.143   0.892
 1126ETH      C 3948   2.427   0.240   1.876
 1126ETH     C1 3949   2.280   0.217   1.912
 1126ETH      O 3950   2.217   0.146   1.806
 1126ETH      H 3951   2.479   0.144   1.862
 1126ETH     H1 3952   2.478   0.297   1.955
 1126ETH     H2 3953   2.438   0.297   1.782
 1126ETH     H3 3954   2.274   0.159   2.005
 1126ETH     H4 3955   2.230   0.313   1.930
 1126ETH     H5 3956   2.207   0.208   1.732
 1127ETH      C 3957   5.158   2.710   5.296
 1127ETH     C1 3958   5.152   2.839   5.379
 1127ETH      O 3959   5.121   2.808   5.515
 1127ETH      H 3960   5.237   2.643   5.333
 1127ETH     H1 3961   5.180   2.733   5.192
 1127ETH     H2 3962   5.062   2.656   5.300
 1127ETH     H3 3963   5.249   2.890   5.373
 1127ETH     H4 3964   5.076   2.906   5.337
 1127ETH     H5 3965   5.042   2.751   5.515
 1128ETH      C 3966   3.947   3.063   1.615
 1128ETH     C1 3967   4.044   3.182   1.622
 1128ETH      O 3968   4.140   3.170   1.516
 1128ETH      H 3969   3.896   3.061   1.518
 1128ETH     H1 3970   3.872   3.070   1.694
 1128ETH     H2 3971   4.002   2.968   1.627
 1128ETH     H3 3972   3.987   3.275   1.611
 1128ETH     H4 3973   4.094   3.183   1.719
 1128ETH     H5 3974   4.194   3.091   1.534
 1129ETH      C 3975   0.593   1.334   4.422
 1129ETH     C1 3976   0.443   1.339   4.452
 1129ETH      O 3977   0.375   1.397   4.341
 1129ETH      H 3978   0.612   1.273   4.333
 1129ETH     H1 3979   0.647   1.289   4.506
 1129ETH     H2 3980   0.633   1.435   4.405
 1129ETH     H3 3981   0.406   1.237   4.470
 1129ETH     H4 3982   0.425   1.399   4.542
 1129ETH     H5 3983   0.409   1.487   4.329
 1130ETH      C 3984   5.301   1.085   2.604
 1130ETH     C1 3985   5.223   1.217   2.620
 1130ETH      O 3986   5.273   1.314   2.528
 1130ETH      H 3987   5.289   1.046   2.502
 1130ETH     H1 3988   5.262   1.010   2.674
 1130ETH     H2 3989   5.407   1.100   2.624
 1130ETH     H3 3990   5.117   1.199   2.601
 1130ETH     H4 3991   5.234   1.254   2.723
 1130ETH     H5 3992   5.370   1.321   2.540
 1131ETH      C 3993   1.787   1.975   3.031
 1131ETH     C1 3994   1.739   2.002   2.888
 1131ETH      O 3995   1.826   2.096   2.827
 1131ETH      H 3996   1.886   1.928   3.029
 1131ETH     H1 3997   1.717   1.907   3.081
 1131ETH     H2 3998   1.793   2.068   3.088
 1131ETH     H3 3999   1.738   1.908   2.831
 1131ETH     H4 4000   1.637   2.042   2.890
 1131ETH     H5 4001   1.844   2.167   2.891
 1132ETH      C 4002   3.246   4.284   2.106
 1132ETH     C1 4003   3.303   4.413   2.046
 1132ETH      O 4004   3.234   4.528   2.096
 1132ETH      H 4005   3.252   4.283   2.215
 1132ETH     H1 4006   3.302   4.197   2.067
 1132ETH     H2 4007   3.141   4.269   2.076
 1132ETH     H3 4008   3.409   4.420   2.072
 1132ETH     H4 4009   3.294   4.408   1.937
 1132ETH     H5 4010   3.139   4.506   2.101
 1133ETH      C 4011   3.464   0.561   1.295
 1133ETH     C1 4012   3.551   0.438   1.327
 1133ETH      O 4013   3.649   0.474   1.424
 1133ETH      H 4014   3.414   0.596   1.386
 1133ETH     H1 4015   3.388   0.535   1.220
 1133ETH     H2 4016   3.525   0.643   1.256
 1133ETH     H3 4017   3.487   0.357   1.365
 1133ETH     H4 4018   3.599   0.402   1.235
 1133ETH     H5 4019   3.705   0.543   1.385
 1134ETH      C 4020   1.089   1.098   1.309
 1134ETH     C1 4021   1.089   0.989   1.201
 1134ETH      O 4022   0.956   0.970   1.155
 1134ETH      H 4023   1.057   1.194   1.267
 1134ETH     H1 4024   1.190   1.111   1.351
 1134ETH     H2 4025   1.021   1.071   1.390
 1134ETH     H3 4026   1.155   1.019   1.118
 1134ETH     H4 4027   1.128   0.896   1.244
 1134ETH     H5 4028   0.899   0.960   1.234
 1135ETH      C 4029   4.020   3.178   2.288
 1135ETH     C1 4030   4.049   3.329   2.292
 1135ETH      O 4031   4.183   3.356   2.252
 1135ETH      H 4032   4.029   3.138   2.186
 1135ETH     H1 4033   3.918   3.160   2.322
 1135ETH     H2 4034   4.088   3.123   2.355
 1135ETH     H3 4035   3.978   3.380   2.226
 1135ETH     H4 4036   4.034   3.365   2.394
 1135ETH     H5 4037   4.238   3.280   2.275
 1136ETH      C 4038   2.265   2.082   3.247
 1136ETH     C1 4039   2.339   1.950   3.276
 1136ETH      O 4040   2.325   1.866   3.163
 1136ETH      H 4041   2.309   2.132   3.160
 1136ETH     H1 4042   2.272   2.149   3.334
 1136ETH     H2 4043   2.159   2.063   3.227
 1136ETH     H3 4044   2.445   1.971   3.293
 1136ETH     H4 4045   2.298   1.902   3.365
 1136ETH     H5 4046   2.230   1.845   3.151
 1137ETH      C 4047   1.374   4.716   5.233
 1137ETH     C1 4048   1.230   4.676   5.270
 1137ETH      O 4049   1.141   4.734   5.176
 1137ETH      H 4050   1.401   4.679   5.133
 1137ETH     H1 4051   1.445   4.674   5.305
 1137ETH     H2 4052   1.385   4.825   5.234
 1137ETH     H3 4053   1.221   4.566   5.270
 1137ETH     H4 4054   1.207   4.711   5.371
 1137ETH     H5 4055   1.151   4.830   5.184
 1138ETH      C 4056   3.453   1.140   3.526
 1138ETH     C1 4057   3.376   1.273   3.526
 1138ETH      O 4058   3.430   1.357   3.425
 1138ETH      H 4059   3.441   1.089   3.430
 1138ETH     H1 4060   3.416   1.074   3.605
 1138ETH     H2 4061   3.560   1.158   3.544
 1138ETH     H3 4062   3.269   1.253   3.508
 1138ETH     H4 4063   3.385   1.321   3.624
 1138ETH     H5 4064   3.526   1.354   3.435
 1139ETH      C 4065   2.302   2.483   3.609
 1139ETH     C1 4066   2.166   2.482   3.680
 1139ETH      O 4067   2.065   2.506   3.584
 1139ETH      H 4068   2.306   2.405   3.533
 1139ETH     H1 4069   2.383   2.466   3.681
 1139ETH     H2 4070   2.320   2.580   3.560
 1139ETH     H3 4071   2.151   2.385   3.729
 1139ETH     H4 4072   2.164   2.560   3.757
 1139ETH     H5 4073   2.083   2.592   3.543
 1140ETH      C 4074   4.163   3.432   1.129
 1140ETH     C1 4075   4.222   3.451   1.270
 1140ETH      O 4076   4.136   3.535   1.346
 1140ETH      H 4077   4.063   3.386   1.136
 1140ETH     H1 4078   4.227   3.367   1.069
 1140ETH     H2 4079   4.153   3.528   1.077
 1140ETH     H3 4080   4.232   3.353   1.318
 1140ETH     H4 4081   4.322   3.495   1.261
 1140ETH     H5 4082   4.129   3.620   1.298
 1141ETH      C 4083   5.222   1.603   2.759
 1141ETH     C1 4084   5.121   1.646   2.652
 1141ETH      O 4085   5.185   1.728   2.555
 1141ETH      H 4086   5.304   1.545   2.713
 1141ETH     H1 4087   5.174   1.540   2.834
 1141ETH     H2 4088   5.265   1.690   2.809
 1141ETH     H3 4089   5.079   1.557   2.604
 1141ETH     H4 4090   5.038   1.701   2.700
 1141ETH     H5 4091   5.224   1.804   2.603
 1142ETH      C 4092   5.558   3.272   0.972
 1142ETH     C1 4093   5.587   3.409   0.908
 1142ETH      O 4094   5.632   3.499   1.009
 1142ETH      H 4095   5.651   3.228   1.011
 1142ETH     H1 4096   5.516   3.204   0.897
 1142ETH     H2 4097   5.486   3.281   1.054
 1142ETH     H3 4098   5.662   3.398   0.829
 1142ETH     H4 4099   5.495   3.446   0.861
 1142ETH     H5 4100   5.571   3.491   1.084
 1143ETH      C 4101   3.367   0.884   4.140
 1143ETH     C1 4102   3.218   0.867   4.107
 1143ETH      O 4103   3.153   0.811   4.220
 1143ETH      H 4104   3.379   0.951   4.226
 1143ETH     H1 4105   3.420   0.928   4.055
 1143ETH     H2 4106   3.413   0.788   4.163
 1143ETH     H3 4107   3.175   0.965   4.082
 1143ETH     H4 4108   3.207   0.802   4.019
 1143ETH     H5 4109   3.188   0.721   4.232
 1144ETH      C 4110   3.139   2.146   2.745
 1144ETH     C1 4111   3.287   2.183   2.732
 1144ETH      O 4112   3.314   2.292   2.820
 1144ETH      H 4113   3.117   2.108   2.845
 1144ETH     H1 4114   3.114   2.068   2.672
 1144ETH     H2 4115   3.074   2.232   2.724
 1144ETH     H3 4116   3.349   2.096   2.757
 1144ETH     H4 4117   3.309   2.211   2.629
 1144ETH     H5 4118   3.253   2.364   2.796
 1145ETH      C 4119   1.084   4.794   1.587
 1145ETH     C1 4120   1.130   4.817   1.732
 1145ETH      O 4121   1.270   4.846   1.735
 1145ETH      H 4122   1.101   4.885   1.527
 1145ETH     H1 4123   0.978   4.770   1.584
 1145ETH     H2 4124   1.139   4.711   1.541
 1145ETH     H3 4125   1.073   4.900   1.775
 1145ETH     H4 4126   1.109   4.727   1.791
 1145ETH     H5 4127   1.316   4.772   1.692
 1146ETH      C 4128   2.364   3.645   2.925
 1146ETH     C1 4129   2.431   3.525   2.856
 1146ETH      O 4130   2.380   3.512   2.723
 1146ETH      H 4131   2.392   3.737   2.873
 1146ETH     H1 4132   2.397   3.653   3.029
 1146ETH     H2 4133   2.255   3.634   2.923
 1146ETH     H3 4134   2.539   3.542   2.852
 1146ETH     H4 4135   2.412   3.434   2.914
 1146ETH     H5 4136   2.283   3.506   2.731
 1147ETH      C 4137   2.677   1.825   4.458
 1147ETH     C1 4138   2.528   1.789   4.456
 1147ETH      O 4139   2.497   1.718   4.336
 1147ETH      H 4140   2.736   1.733   4.455
 1147ETH     H1 4141   2.702   1.879   4.549
 1147ETH     H2 4142   2.704   1.888   4.372
 1147ETH     H3 4143   2.504   1.727   4.543
 1147ETH     H4 4144   2.468   1.881   4.461
 1147ETH     H5 4145   2.534   1.769   4.262
 1148ETH      C 4146   4.940   4.784   3.620
 1148ETH     C1 4147   4.995   4.647   3.578
 1148ETH      O 4148   5.113   4.619   3.653
 1148ETH      H 4149   4.917   4.785   3.727
 1148ETH     H1 4150   4.848   4.807   3.565
 1148ETH     H2 4151   5.013   4.863   3.599
 1148ETH     H3 4152   4.919   4.570   3.596
 1148ETH     H4 4153   5.017   4.648   3.470
 1148ETH     H5 4154   5.180   4.684   3.625
 1149ETH      C 4155   1.698   3.898   1.912
 1149ETH     C1 4156   1.787   3.984   1.822
 1149ETH      O 4157   1.871   4.065   1.904
 1149ETH      H 4158   1.759   3.832   1.974
 1149ETH     H1 4159   1.631   3.837   1.850
 1149ETH     H2 4160   1.637   3.961   1.978
 1149ETH     H3 4161   1.848   3.918   1.759
 1149ETH     H4 4162   1.725   4.047   1.757
 1149ETH     H5 4163   1.815   4.123   1.958
 1150ETH      C 4164   0.543   2.833   3.009
 1150ETH     C1 4165   0.591   2.966   2.948
 1150ETH      O 4166   0.609   2.952   2.808
 1150ETH      H 4167   0.448   2.801   2.964
 1150ETH     H1 4168   0.529   2.844   3.117
 1150ETH     H2 4169   0.618   2.754   2.993
 1150ETH     H3 4170   0.517   3.044   2.970
 1150ETH     H4 4171   0.686   2.995   2.996
 1150ETH     H5 4172   0.650   2.865   2.793
 1151ETH      C 4173   1.977   4.934   3.521
 1151ETH     C1 4174   1.860   5.033   3.522
 1151ETH      O 4175   1.851   5.094   3.394
 1151ETH      H 4176   1.963   4.859   3.442
 1151ETH     H1 4177   1.985   4.882   3.617
 1151ETH     H2 4178   2.072   4.986   3.502
 1151ETH     H3 4179   1.767   4.979   3.545
 1151ETH     H4 4180   1.876   5.108   3.600
 1151ETH     H5 4181   1.923   5.159   3.388
 1152ETH      C 4182   4.690   2.342   4.670
 1152ETH     C1 4183   4.826   2.411   4.688
 1152ETH      O 4184   4.922   2.354   4.599
 1152ETH      H 4185   4.651   2.359   4.569
 1152ETH     H1 4186   4.618   2.383   4.741
 1152ETH     H2 4187   4.698   2.234   4.687
 1152ETH     H3 4188   4.815   2.518   4.669
 1152ETH     H4 4189   4.859   2.398   4.792
 1152ETH     H5 4190   4.917   2.257   4.609
 1153ETH      C 4191   2.043   4.944   4.039
 1153ETH     C1 4192   1.993   5.022   3.917
 1153ETH      O 4193   2.005   5.161   3.943
 1153ETH      H 4194   2.148   4.969   4.059
 1153ETH     H1 4195   2.037   4.836   4.022
 1153ETH     H2 4196   1.983   4.969   4.127
 1153ETH     H3 4197   2.052   4.992   3.829
 1153ETH     H4 4198   1.888   4.996   3.895
 1153ETH     H5 4199   1.950   5.177   4.022
 1154ETH      C 4200   4.863   5.185   1.584
 1154ETH     C1 4201   4.851   5.163   1.433
 1154ETH      O 4202   4.857   5.289   1.368
 1154ETH      H 4203   4.958   5.234   1.608
 1154ETH     H1 4204   4.859   5.089   1.638
 1154ETH     H2 4205   4.781   5.248   1.621
 1154ETH     H3 4206   4.932   5.098   1.398
 1154ETH     H4 4207   4.756   5.112   1.411
 1154ETH     H5 4208   4.776   5.337   1.391
 1155ETH      C 4209   3.389   1.702   3.499
 1155ETH     C1 4210   3.248   1.665   3.455
 1155ETH      O 4211   3.242   1.678   3.313
 1155ETH      H 4212   3.462   1.639   3.447
 1155ETH     H1 4213   3.401   1.689   3.607
 1155ETH     H2 4214   3.410   1.807   3.472
 1155ETH     H3 4215   3.225   1.562   3.486
 1155ETH     H4 4216   3.175   1.732   3.503
 1155ETH     H5 4217   3.190   1.758   3.293
 1156ETH      C 4218   2.788   1.125   1.860
 1156ETH     C1 4219   2.849   1.031   1.965
 1156ETH      O 4220   2.777   1.045   2.087
 1156ETH      H 4221   2.683   1.100   1.842
 1156ETH     H1 4222   2.842   1.117   1.765
 1156ETH     H2 4223   2.793   1.229   1.893
 1156ETH     H3 4224   2.844   0.928   1.929
 1156ETH     H4 4225   2.955   1.057   1.980
 1156ETH     H5 4226   2.788   1.137   2.117
 1157ETH      C 4227   5.256   5.069   5.332
 1157ETH     C1 4228   5.369   4.983   5.274
 1157ETH      O 4229   5.480   4.983   5.363
 1157ETH      H 4230   5.224   5.030   5.429
 1157ETH     H1 4231   5.170   5.068   5.264
 1157ETH     H2 4232   5.289   5.173   5.343
 1157ETH     H3 4233   5.333   4.880   5.258
 1157ETH     H4 4234   5.399   5.024   5.177
 1157ETH     H5 4235   5.510   5.075   5.373
 1158ETH      C 4236   1.087   5.265   4.719
 1158ETH     C1 4237   1.183   5.250   4.600
 1158ETH      O 4238   1.312   5.295   4.641
 1158ETH      H 4239   1.121   5.205   4.804
 1158ETH     H1 4240   0.987   5.231   4.691
 1158ETH     H2 4241   1.081   5.370   4.751
 1158ETH     H3 4242   1.187   5.145   4.568
 1158ETH     H4 4243   1.146   5.310   4.516
 1158ETH     H5 4244   1.304   5.391   4.654
 1159ETH      C 4245   1.234   3.394   1.435
 1159ETH     C1 4246   1.205   3.377   1.585
 1159ETH      O 4247   1.188   3.238   1.612
 1159ETH      H 4248   1.324   3.337   1.407
 1159ETH     H1 4249   1.251   3.499   1.411
 1159ETH     H2 4250   1.150   3.357   1.375
 1159ETH     H3 4251   1.289   3.417   1.643
 1159ETH     H4 4252   1.115   3.433   1.611
 1159ETH     H5 4253   1.107   3.210   1.567
 1160ETH      C 4254   3.093   5.266   1.667
 1160ETH     C1 4255   3.118   5.360   1.785
 1160ETH      O 4256   3.181   5.286   1.890
 1160ETH      H 4257   3.186   5.220   1.632
 1160ETH     H1 4258   3.050   5.323   1.583
 1160ETH     H2 4259   3.023   5.186   1.694
 1160ETH     H3 4260   3.184   5.442   1.753
 1160ETH     H4 4261   3.024   5.404   1.819
 1160ETH     H5 4262   3.118   5.220   1.923
 1161ETH      C 4263   4.131   2.281   4.299
 1161ETH     C1 4264   4.054   2.413   4.279
 1161ETH      O 4265   4.053   2.485   4.402
 1161ETH      H 4266   4.235   2.301   4.328
 1161ETH     H1 4267   4.132   2.224   4.205
 1161ETH     H2 4268   4.084   2.219   4.376
 1161ETH     H3 4269   4.102   2.472   4.201
 1161ETH     H4 4270   3.952   2.390   4.248
 1161ETH     H5 4271   4.010   2.427   4.467
 1162ETH      C 4272   1.031   3.383   4.112
 1162ETH     C1 4273   0.999   3.530   4.084
 1162ETH      O 4274   0.926   3.541   3.962
 1162ETH      H 4275   0.938   3.325   4.124
 1162ETH     H1 4276   1.089   3.373   4.204
 1162ETH     H2 4277   1.089   3.339   4.030
 1162ETH     H3 4278   0.939   3.570   4.166
 1162ETH     H4 4279   1.092   3.588   4.079
 1162ETH     H5 4280   0.982   3.508   3.890
 1163ETH      C 4281   1.286   0.463   2.823
 1163ETH     C1 4282   1.293   0.584   2.730
 1163ETH      O 4283   1.246   0.698   2.800
 1163ETH      H 4284   1.349   0.481   2.912
 1163ETH     H1 4285   1.324   0.373   2.774
 1163ETH     H2 4286   1.183   0.444   2.856
 1163ETH     H3 4287   1.397   0.600   2.698
 1163ETH     H4 4288   1.233   0.566   2.640
 1163ETH     H5 4289   1.152   0.682   2.820
 1164ETH      C 4290   1.181   1.834   5.571
 1164ETH     C1 4291   1.321   1.896   5.560
 1164ETH      O 4292   1.419   1.795   5.535
 1164ETH      H 4293   1.151   1.786   5.477
 1164ETH     H1 4294   1.109   1.913   5.595
 1164ETH     H2 4295   1.176   1.759   5.652
 1164ETH     H3 4296   1.321   1.970   5.478
 1164ETH     H4 4297   1.344   1.949   5.653
 1164ETH     H5 4298   1.393   1.717   5.586
 1165ETH      C 4299   4.433   2.022   3.090
 1165ETH     C1 4300   4.412   1.873   3.123
 1165ETH      O 4301   4.486   1.837   3.239
 1165ETH      H 4302   4.396   2.086   3.171
 1165ETH     H1 4303   4.377   2.049   2.999
 1165ETH     H2 4304   4.539   2.045   3.073
 1165ETH     H3 4305   4.305   1.854   3.138
 1165ETH     H4 4306   4.445   1.813   3.037
 1165ETH     H5 4307   4.576   1.873   3.229
 1166ETH      C 4308   3.280   3.329   2.576
 1166ETH     C1 4309   3.290   3.203   2.491
 1166ETH      O 4310   3.425   3.158   2.492
 1166ETH      H 4311   3.313   3.307   2.679
 1166ETH     H1 4312   3.176   3.365   2.582
 1166ETH     H2 4313   3.343   3.410   2.536
 1166ETH     H3 4314   3.224   3.125   2.532
 1166ETH     H4 4315   3.256   3.224   2.388
 1166ETH     H5 4316   3.477   3.219   2.437
 1167ETH      C 4317   3.154   4.226   2.653
 1167ETH     C1 4318   3.246   4.219   2.775
 1167ETH      O 4319   3.222   4.333   2.856
 1167ETH      H 4320   3.049   4.227   2.684
 1167ETH     H1 4321   3.170   4.138   2.589
 1167ETH     H2 4322   3.174   4.316   2.594
 1167ETH     H3 4323   3.225   4.128   2.832
 1167ETH     H4 4324   3.350   4.215   2.742
 1167ETH     H5 4325   3.251   4.411   2.805
 1168ETH      C 4326   1.642   1.739   4.461
 1168ETH     C1 4327   1.562   1.869   4.451
 1168ETH      O 4328   1.424   1.838   4.452
 1168ETH      H 4329   1.615   1.685   4.552
 1168ETH     H1 4330   1.750   1.761   4.465
 1168ETH     H2 4331   1.623   1.675   4.375
 1168ETH     H3 4332   1.587   1.934   4.536
 1168ETH     H4 4333   1.590   1.923   4.359
 1168ETH     H5 4334   1.404   1.788   4.371
 1169ETH      C 4335   1.329   1.682   0.998
 1169ETH     C1 4336   1.241   1.556   0.998
 1169ETH      O 4337   1.168   1.546   1.119
 1169ETH      H 4338   1.267   1.773   0.996
 1169ETH     H1 4339   1.393   1.685   0.909
 1169ETH     H2 4340   1.394   1.685   1.086
 1169ETH     H3 4341   1.173   1.560   0.912
 1169ETH     H4 4342   1.306   1.468   0.986
 1169ETH     H5 4343   1.225   1.578   1.191
 1170ETH      C 4344   4.246   1.180   1.990
 1170ETH     C1 4345   4.140   1.091   1.925
 1170ETH      O 4346   4.200   0.975   1.869
 1170ETH      H 4347   4.298   1.127   2.071
 1170ETH     H1 4348   4.199   1.270   2.032
 1170ETH     H2 4349   4.321   1.213   1.917
 1170ETH     H3 4350   4.065   1.062   2.000
 1170ETH     H4 4351   4.089   1.149   1.847
 1170ETH     H5 4352   4.273   1.006   1.812
 1171ETH      C 4353   4.990   1.426   0.887
 1171ETH     C1 4354   5.058   1.298   0.839
 1171ETH      O 4355   5.176   1.274   0.913
 1171ETH      H 4356   4.959   1.417   0.992
 1171ETH     H1 4357   4.902   1.447   0.827
 1171ETH     H2 4358   5.058   1.512   0.879
 1171ETH     H3 4359   4.989   1.213   0.850
 1171ETH     H4 4360   5.084   1.308   0.732
 1171ETH     H5 4361   5.219   1.360   0.929
 1172ETH      C 4362   0.348   4.421   0.680
 1172ETH     C1 4363   0.307   4.287   0.740
 1172ETH      O 4364   0.304   4.189   0.636
 1172ETH      H 4365   0.449   4.414   0.639
 1172ETH     H1 4366   0.349   4.499   0.758
 1172ETH     H2 4367   0.278   4.452   0.602
 1172ETH     H3 4368   0.379   4.259   0.818
 1172ETH     H4 4369   0.208   4.297   0.787
 1172ETH     H5 4370   0.230   4.213   0.577
 1173ETH      C 4371   1.424   4.343   2.349
 1173ETH     C1 4372   1.463   4.277   2.483
 1173ETH      O 4373   1.594   4.224   2.471
 1173ETH      H 4374   1.496   4.421   2.324
 1173ETH     H1 4375   1.325   4.388   2.356
 1173ETH     H2 4376   1.424   4.269   2.269
 1173ETH     H3 4377   1.459   4.352   2.563
 1173ETH     H4 4378   1.391   4.198   2.507
 1173ETH     H5 4379   1.588   4.137   2.429
 1174ETH      C 4380   3.906   3.534   4.576
 1174ETH     C1 4381   3.970   3.545   4.437
 1174ETH      O 4382   3.983   3.415   4.380
 1174ETH      H 4383   3.805   3.492   4.569
 1174ETH     H1 4384   3.899   3.633   4.622
 1174ETH     H2 4385   3.966   3.470   4.642
 1174ETH     H3 4386   3.908   3.608   4.372
 1174ETH     H4 4387   4.069   3.592   4.445
 1174ETH     H5 4388   4.030   3.359   4.444
 1175ETH      C 4389   3.202   1.476   5.556
 1175ETH     C1 4390   3.258   1.616   5.535
 1175ETH      O 4391   3.174   1.703   5.608
 1175ETH      H 4392   3.197   1.456   5.664
 1175ETH     H1 4393   3.264   1.401   5.508
 1175ETH     H2 4394   3.100   1.471   5.516
 1175ETH     H3 4395   3.362   1.622   5.571
 1175ETH     H4 4396   3.258   1.640   5.428
 1175ETH     H5 4397   3.102   1.729   5.548
 1176ETH      C 4398   2.958   4.988   2.641
 1176ETH     C1 4399   2.820   5.049   2.642
 1176ETH      O 4400   2.746   4.987   2.748
 1176ETH      H 4401   3.006   5.002   2.739
 1176ETH     H1 4402   3.021   5.036   2.565
 1176ETH     H2 4403   2.953   4.880   2.621
 1176ETH     H3 4404   2.829   5.157   2.660
 1176ETH     H4 4405   2.770   5.034   2.546
 1176ETH     H5 4406   2.731   4.894   2.724
 1177ETH      C 4407   1.851   0.830   1.516
 1177ETH     C1 4408   1.700   0.827   1.545
 1177ETH      O 4409   1.632   0.905   1.447
 1177ETH      H 4410   1.872   0.787   1.418
 1177ETH     H1 4411   1.904   0.771   1.592
 1177ETH     H2 4412   1.890   0.932   1.519
 1177ETH     H3 4413   1.665   0.723   1.543
 1177ETH     H4 4414   1.681   0.867   1.645
 1177ETH     H5 4415   1.673   0.992   1.443
 1178ETH      C 4416   4.209   2.403   3.262
 1178ETH     C1 4417   4.223   2.551   3.222
 1178ETH      O 4418   4.148   2.630   3.313
 1178ETH      H 4419   4.248   2.386   3.363
 1178ETH     H1 4420   4.266   2.340   3.193
 1178ETH     H2 4421   4.104   2.371   3.259
 1178ETH     H3 4422   4.328   2.580   3.225
 1178ETH     H4 4423   4.185   2.565   3.120
 1178ETH     H5 4424   4.056   2.598   3.311
 1179ETH      C 4425   2.930   1.624   2.435
 1179ETH     C1 4426   3.029   1.738   2.409
 1179ETH      O 4427   3.148   1.685   2.352
 1179ETH      H 4428   2.896   1.585   2.339
 1179ETH     H1 4429   2.842   1.659   2.491
 1179ETH     H2 4430   2.977   1.545   2.493
 1179ETH     H3 4431   2.983   1.815   2.347
 1179ETH     H4 4432   3.052   1.786   2.505
 1179ETH     H5 4433   3.183   1.621   2.416
 1180ETH      C 4434   1.477   2.959   3.722
 1180ETH     C1 4435   1.434   2.881   3.847
 1180ETH      O 4436   1.313   2.810   3.819
 1180ETH      H 4437   1.489   2.891   3.637
 1180ETH     H1 4438   1.572   3.010   3.739
 1180ETH     H2 4439   1.402   3.035   3.694
 1180ETH     H3 4440   1.513   2.810   3.874
 1180ETH     H4 4441   1.421   2.949   3.932
 1180ETH     H5 4442   1.244   2.875   3.799
 1181ETH      C 4443   3.758   0.359   0.518
 1181ETH     C1 4444   3.615   0.409   0.543
 1181ETH      O 4445   3.566   0.475   0.427
 1181ETH      H 4446   3.760   0.286   0.436
 1181ETH     H1 4447   3.798   0.311   0.608
 1181ETH     H2 4448   3.825   0.442   0.491
 1181ETH     H3 4449   3.551   0.324   0.569
 1181ETH     H4 4450   3.616   0.478   0.628
 1181ETH     H5 4451   3.639   0.532   0.395
 1182ETH      C 4452   5.074   0.558   0.598
 1182ETH     C1 4453   4.939   0.491   0.573
 1182ETH      O 4454   4.960   0.353   0.545
 1182ETH      H 4455   5.124   0.512   0.684
 1182ETH     H1 4456   5.059   0.665   0.620
 1182ETH     H2 4457   5.139   0.550   0.510
 1182ETH     H3 4458   4.878   0.503   0.663
 1182ETH     H4 4459   4.887   0.540   0.490
 1182ETH     H5 4460   5.008   0.347   0.461
 1183ETH      C 4461   2.452   5.056   2.663
 1183ETH     C1 4462   2.317   5.029   2.595
 1183ETH      O 4463   2.231   4.958   2.685
 1183ETH      H 4464   2.441   5.121   2.750
 1183ETH     H1 4465   2.520   5.105   2.593
 1183ETH     H2 4466   2.497   4.962   2.696
 1183ETH     H3 4467   2.271   5.124   2.566
 1183ETH     H4 4468   2.334   4.969   2.505
 1183ETH     H5 4469   2.286   4.892   2.732
 1184ETH      C 4470   3.529   0.801   3.105
 1184ETH     C1 4471   3.633   0.694   3.068
 1184ETH      O 4472   3.740   0.698   3.163
 1184ETH      H 4473   3.489   0.783   3.206
 1184ETH     H1 4474   3.446   0.801   3.034
 1184ETH     H2 4475   3.576   0.900   3.103
 1184ETH     H3 4476   3.585   0.596   3.068
 1184ETH     H4 4477   3.671   0.714   2.967
 1184ETH     H5 4478   3.781   0.786   3.157
 1185ETH      C 4479   4.395   5.284   3.637
 1185ETH     C1 4480   4.263   5.343   3.589
 1185ETH      O 4481   4.176   5.358   3.701
 1185ETH      H 4482   4.438   5.348   3.716
 1185ETH     H1 4483   4.467   5.280   3.555
 1185ETH     H2 4484   4.381   5.183   3.678
 1185ETH     H3 4485   4.281   5.440   3.542
 1185ETH     H4 4486   4.218   5.276   3.513
 1185ETH     H5 4487   4.155   5.269   3.734
 1186ETH      C 4488   0.625   2.264   3.466
 1186ETH     C1 4489   0.567   2.341   3.346
 1186ETH      O 4490   0.545   2.248   3.239
 1186ETH      H 4491   0.553   2.191   3.504
 1186ETH     H1 4492   0.652   2.333   3.547
 1186ETH     H2 4493   0.715   2.209   3.437
 1186ETH     H3 4494   0.472   2.389   3.376
 1186ETH     H4 4495   0.636   2.419   3.315
 1186ETH     H5 4496   0.634   2.222   3.210
 1187ETH      C 4497   3.373   2.925   3.713
 1187ETH     C1 4498   3.498   3.010   3.733
 1187ETH      O 4499   3.469   3.112   3.827
 1187ETH      H 4500   3.340   2.884   3.810
 1187ETH     H1 4501   3.394   2.841   3.645
 1187ETH     H2 4502   3.291   2.984   3.671
 1187ETH     H3 4503   3.580   2.947   3.770
 1187ETH     H4 4504   3.530   3.053   3.637
 1187ETH     H5 4505   3.400   3.169   3.788
 1188ETH      C 4506   2.495   1.624   2.237
 1188ETH     C1 4507   2.410   1.750   2.258
 1188ETH      O 4508   2.481   1.864   2.209
 1188ETH      H 4509   2.514   1.608   2.130
 1188ETH     H1 4510   2.441   1.536   2.275
 1188ETH     H2 4511   2.591   1.631   2.289
 1188ETH     H3 4512   2.315   1.737   2.206
 1188ETH     H4 4513   2.390   1.762   2.365
 1188ETH     H5 4514   2.565   1.866   2.257
 1189ETH      C 4515   0.579   2.900   1.872
 1189ETH     C1 4516   0.445   2.906   1.947
 1189ETH      O 4517   0.425   3.036   2.002
 1189ETH      H 4518   0.581   2.970   1.788
 1189ETH     H1 4519   0.595   2.800   1.832
 1189ETH     H2 4520   0.663   2.924   1.939
 1189ETH     H3 4521   0.364   2.881   1.878
 1189ETH     H4 4522   0.446   2.831   2.028
 1189ETH     H5 4523   0.507   3.061   2.048
 1190ETH      C 4524   4.202   1.425   2.786
 1190ETH     C1 4525   4.181   1.388   2.934
 1190ETH      O 4526   4.042   1.379   2.963
 1190ETH      H 4527   4.160   1.348   2.720
 1190ETH     H1 4528   4.309   1.433   2.765
 1190ETH     H2 4529   4.155   1.522   2.763
 1190ETH     H3 4530   4.230   1.292   2.955
 1190ETH     H4 4531   4.228   1.465   2.997
 1190ETH     H5 4532   3.997   1.457   2.925
 1191ETH      C 4533   1.697   4.516   3.939
 1191ETH     C1 4534   1.814   4.466   3.855
 1191ETH      O 4535   1.927   4.548   3.883
 1191ETH      H 4536   1.726   4.518   4.045
 1191ETH     H1 4537   1.610   4.450   3.928
 1191ETH     H2 4538   1.669   4.616   3.907
 1191ETH     H3 4539   1.833   4.363   3.886
 1191ETH     H4 4540   1.788   4.468   3.749
 1191ETH     H5 4541   1.921   4.628   3.827
 1192ETH      C 4542   3.053   4.939   3.277
 1192ETH     C1 4543   2.983   5.042   3.186
 1192ETH      O 4544   3.021   5.173   3.226
 1192ETH      H 4545   3.162   4.951   3.270
 1192ETH     H1 4546   3.027   4.837   3.246
 1192ETH     H2 4547   3.023   4.953   3.381
 1192ETH     H3 4548   3.013   5.025   3.082
 1192ETH     H4 4549   2.875   5.029   3.192
 1192ETH     H5 4550   2.990   5.187   3.318
 1193ETH      C 4551   4.422   5.473   2.619
 1193ETH     C1 4552   4.468   5.358   2.709
 1193ETH      O 4553   4.582   5.295   2.651
 1193ETH      H 4554   4.500   5.549   2.609
 1193ETH     H1 4555   4.333   5.521   2.661
 1193ETH     H2 4556   4.396   5.437   2.518
 1193ETH     H3 4557   4.492   5.397   2.809
 1193ETH     H4 4558   4.386   5.285   2.720
 1193ETH     H5 4559   4.558   5.272   2.560
 1194ETH      C 4560   4.178   2.131   2.333
 1194ETH     C1 4561   4.129   2.009   2.254
 1194ETH      O 4562   4.175   2.022   2.119
 1194ETH      H 4563   4.287   2.138   2.328
 1194ETH     H1 4564   4.147   2.123   2.438
 1194ETH     H2 4565   4.135   2.223   2.292
 1194ETH     H3 4566   4.168   1.918   2.299
 1194ETH     H4 4567   4.019   2.005   2.257
 1194ETH     H5 4568   4.113   2.082   2.074
 1195ETH      C 4569   3.791   4.278   3.474
 1195ETH     C1 4570   3.802   4.235   3.328
 1195ETH      O 4571   3.867   4.108   3.322
 1195ETH      H 4572   3.734   4.203   3.531
 1195ETH     H1 4573   3.738   4.374   3.481
 1195ETH     H2 4574   3.890   4.289   3.518
 1195ETH     H3 4575   3.701   4.227   3.286
 1195ETH     H4 4576   3.858   4.310   3.271
 1195ETH     H5 4577   3.962   4.122   3.338
 1196ETH      C 4578   2.607   4.678   2.966
 1196ETH     C1 4579   2.671   4.645   2.830
 1196ETH      O 4580   2.591   4.701   2.727
 1196ETH      H 4581   2.600   4.787   2.979
 1196ETH     H1 4582   2.670   4.638   3.046
 1196ETH     H2 4583   2.507   4.635   2.974
 1196ETH     H3 4584   2.772   4.686   2.826
 1196ETH     H4 4585   2.677   4.536   2.819
 1196ETH     H5 4586   2.502   4.662   2.737
 1197ETH      C 4587   2.688   3.015   2.911
 1197ETH     C1 4588   2.563   3.104   2.904
 1197ETH      O 4589   2.530   3.128   2.768
 1197ETH      H 4590   2.671   2.920   2.860
 1197ETH     H1 4591   2.714   2.994   3.015
 1197ETH     H2 4592   2.774   3.065   2.864
 1197ETH     H3 4593   2.480   3.053   2.955
 1197ETH     H4 4594   2.582   3.198   2.956
 1197ETH     H5 4595   2.606   3.172   2.726
 1198ETH      C 4596   0.853   2.140   0.564
 1198ETH     C1 4597   0.950   2.250   0.609
 1198ETH      O 4598   1.061   2.253   0.520
 1198ETH      H 4599   0.818   2.160   0.462
 1198ETH     H1 4600   0.766   2.137   0.630
 1198ETH     H2 4601   0.902   2.042   0.565
 1198ETH     H3 4602   0.898   2.347   0.610
 1198ETH     H4 4603   0.984   2.229   0.712
 1198ETH     H5 4604   1.110   2.170   0.532
 1199ETH      C 4605   2.652   4.169   4.206
 1199ETH     C1 4606   2.593   4.045   4.138
 1199ETH      O 4607   2.581   4.071   3.999
 1199ETH      H 4608   2.753   4.189   4.167
 1199ETH     H1 4609   2.660   4.153   4.315
 1199ETH     H2 4610   2.590   4.257   4.189
 1199ETH     H3 4611   2.657   3.958   4.157
 1199ETH     H4 4612   2.495   4.024   4.182
 1199ETH     H5 4613   2.502   4.128   3.989
 1200ETH      C 4614   1.421   0.371   2.402
 1200ETH     C1 4615   1.474   0.318   2.536
 1200ETH      O 4616   1.571   0.217   2.511
 1200ETH      H 4617   1.503   0.410   2.341
 1200ETH     H1 4618   1.350   0.452   2.420
 1200ETH     H2 4619   1.370   0.292   2.346
 1200ETH     H3 4620   1.518   0.401   2.592
 1200ETH     H4 4621   1.389   0.277   2.593
 1200ETH     H5 4622   1.528   0.151   2.454
 1201ETH      C 4623   3.849   5.112   1.651
 1201ETH     C1 4624   3.943   5.228   1.685
 1201ETH      O 4625   3.889   5.348   1.632
 1201ETH      H 4626   3.749   5.129   1.694
 1201ETH     H1 4627   3.888   5.018   1.692
 1201ETH     H2 4628   3.838   5.101   1.542
 1201ETH     H3 4629   3.953   5.235   1.794
 1201ETH     H4 4630   4.042   5.208   1.643
 1201ETH     H5 4631   3.885   5.339   1.535
 1202ETH      C 4632   0.563   4.089   2.959
 1202ETH     C1 4633   0.627   4.225   2.991
 1202ETH      O 4634   0.735   4.248   2.901
 1202ETH      H 4635   0.524   4.086   2.857
 1202ETH     H1 4636   0.480   4.069   3.028
 1202ETH     H2 4637   0.637   4.008   2.969
 1202ETH     H3 4638   0.552   4.304   2.981
 1202ETH     H4 4639   0.663   4.224   3.094
 1202ETH     H5 4640   0.791   4.168   2.901
 1203ETH      C 4641   5.451   1.896   4.512
 1203ETH     C1 4642   5.599   1.917   4.549
 1203ETH      O 4643   5.605   1.984   4.674
 1203ETH      H 4644   5.400   1.838   4.590
 1203ETH     H1 4645   5.442   1.843   4.417
 1203ETH     H2 4646   5.400   1.993   4.503
 1203ETH     H3 4647   5.649   1.819   4.555
 1203ETH     H4 4648   5.649   1.975   4.471
 1203ETH     H5 4649   5.572   2.074   4.661
 1204ETH      C 4650   3.769   0.271   3.946
 1204ETH     C1 4651   3.669   0.272   4.062
 1204ETH      O 4652   3.536   0.272   4.011
 1204ETH      H 4653   3.755   0.179   3.887
 1204ETH     H1 4654   3.872   0.272   3.983
 1204ETH     H2 4655   3.755   0.358   3.880
 1204ETH     H3 4656   3.686   0.183   4.124
 1204ETH     H4 4657   3.686   0.361   4.124
 1204ETH     H5 4658   3.526   0.348   3.952
 1205ETH      C 4659   3.883   1.116   5.502
 1205ETH     C1 4660   3.967   0.997   5.550
 1205ETH      O 4661   3.945   0.886   5.463
 1205ETH      H 4662   3.909   1.143   5.399
 1205ETH     H1 4663   3.900   1.203   5.566
 1205ETH     H2 4664   3.777   1.091   5.506
 1205ETH     H3 4665   4.073   1.024   5.549
 1205ETH     H4 4666   3.938   0.971   5.652
 1205ETH     H5 4667   3.850   0.862   5.468
 1206ETH      C 4668   2.448   3.195   1.739
 1206ETH     C1 4669   2.590   3.216   1.686
 1206ETH      O 4670   2.654   3.089   1.681
 1206ETH      H 4671   2.393   3.124   1.676
 1206ETH     H1 4672   2.393   3.290   1.740
 1206ETH     H2 4673   2.450   3.155   1.842
 1206ETH     H3 4674   2.585   3.259   1.585
 1206ETH     H4 4675   2.645   3.286   1.750
 1206ETH     H5 4676   2.672   3.060   1.772
 1207ETH      C 4677   2.764   5.334   1.469
 1207ETH     C1 4678   2.699   5.291   1.338
 1207ETH      O 4679   2.577   5.361   1.325
 1207ETH      H 4680   2.790   5.440   1.466
 1207ETH     H1 4681   2.855   5.275   1.486
 1207ETH     H2 4682   2.695   5.318   1.553
 1207ETH     H3 4683   2.767   5.314   1.255
 1207ETH     H4 4684   2.681   5.182   1.338
 1207ETH     H5 4685   2.516   5.333   1.394
 1208ETH      C 4686   0.885   1.650   1.986
 1208ETH     C1 4687   0.970   1.733   2.084
 1208ETH      O 4688   0.886   1.798   2.179
 1208ETH      H 4689   0.832   1.570   2.038
 1208ETH     H1 4690   0.949   1.605   1.909
 1208ETH     H2 4691   0.811   1.714   1.935
 1208ETH     H3 4692   1.042   1.667   2.134
 1208ETH     H4 4693   1.027   1.807   2.027
 1208ETH     H5 4694   0.807   1.831   2.132
 1209ETH      C 4695   4.982   2.311   5.138
 1209ETH     C1 4696   4.831   2.315   5.162
 1209ETH      O 4697   4.771   2.409   5.073
 1209ETH      H 4698   5.004   2.280   5.035
 1209ETH     H1 4699   5.029   2.239   5.206
 1209ETH     H2 4700   5.027   2.409   5.155
 1209ETH     H3 4701   4.788   2.216   5.146
 1209ETH     H4 4702   4.812   2.345   5.266
 1209ETH     H5 4703   4.813   2.495   5.089
 1210ETH      C 4704   3.898   2.386   1.840
 1210ETH     C1 4705   3.765   2.322   1.880
 1210ETH      O 4706   3.663   2.364   1.790
 1210ETH      H 4707   3.929   2.356   1.739
 1210ETH     H1 4708   3.977   2.353   1.909
 1210ETH     H2 4709   3.893   2.496   1.844
 1210ETH     H3 4710   3.776   2.212   1.878
 1210ETH     H4 4711   3.739   2.351   1.982
 1210ETH     H5 4712   3.674   2.460   1.778
 1211ETH      C 4713   0.673   5.051   3.735
 1211ETH     C1 4714   0.529   5.067   3.787
 1211ETH      O 4715   0.485   4.944   3.845
 1211ETH      H 4716   0.742   5.029   3.817
 1211ETH     H1 4717   0.706   5.143   3.687
 1211ETH     H2 4718   0.679   4.970   3.661
 1211ETH     H3 4719   0.526   5.148   3.860
 1211ETH     H4 4720   0.463   5.094   3.703
 1211ETH     H5 4721   0.502   4.873   3.781
 1212ETH      C 4722   0.805   3.946   3.248
 1212ETH     C1 4723   0.862   4.016   3.371
 1212ETH      O 4724   0.911   4.144   3.333
 1212ETH      H 4725   0.722   4.004   3.206
 1212ETH     H1 4726   0.767   3.847   3.275
 1212ETH     H2 4727   0.882   3.934   3.171
 1212ETH     H3 4728   0.784   4.026   3.448
 1212ETH     H4 4729   0.943   3.955   3.413
 1212ETH     H5 4730   0.986   4.129   3.273
 1213ETH      C 4731   0.359   4.584   4.644
 1213ETH     C1 4732   0.369   4.465   4.548
 1213ETH      O 4733   0.298   4.355   4.605
 1213ETH      H 4734   0.254   4.612   4.660
 1213ETH     H1 4735   0.413   4.670   4.603
 1213ETH     H2 4736   0.403   4.559   4.742
 1213ETH     H3 4737   0.326   4.492   4.451
 1213ETH     H4 4738   0.474   4.439   4.533
 1213ETH     H5 4739   0.346   4.329   4.685
 1214ETH      C 4740   3.849   3.363   4.070
 1214ETH     C1 4741   3.770   3.477   4.003
 1214ETH      O 4742   3.793   3.478   3.862
 1214ETH      H 4743   3.818   3.265   4.031
 1214ETH     H1 4744   3.830   3.364   4.177
 1214ETH     H2 4745   3.957   3.375   4.054
 1214ETH     H3 4746   3.663   3.464   4.024
 1214ETH     H4 4747   3.801   3.573   4.046
 1214ETH     H5 4748   3.886   3.455   3.850
 1215ETH      C 4749   4.611   1.219   5.179
 1215ETH     C1 4750   4.573   1.250   5.035
 1215ETH      O 4751   4.673   1.192   4.951
 1215ETH      H 4752   4.627   1.112   5.192
 1215ETH     H1 4753   4.532   1.251   5.248
 1215ETH     H2 4754   4.704   1.273   5.205
 1215ETH     H3 4755   4.475   1.205   5.013
 1215ETH     H4 4756   4.566   1.358   5.019
 1215ETH     H5 4757   4.739   1.260   4.932
 1216ETH      C 4758   2.161   2.153   4.203
 1216ETH     C1 4759   2.008   2.157   4.190
 1216ETH      O 4760   1.971   2.160   4.052
 1216ETH      H 4761   2.201   2.060   4.161
 1216ETH     H1 4762   2.189   2.158   4.309
 1216ETH     H2 4763   2.207   2.238   4.152
 1216ETH     H3 4764   1.965   2.070   4.240
 1216ETH     H4 4765   1.970   2.246   4.241
 1216ETH     H5 4766   2.025   2.226   4.006
 1217ETH      C 4767   1.856   3.257   4.347
 1217ETH     C1 4768   1.712   3.224   4.387
 1217ETH      O 4769   1.624   3.301   4.306
 1217ETH      H 4770   1.873   3.233   4.241
 1217ETH     H1 4771   1.926   3.199   4.407
 1217ETH     H2 4772   1.876   3.364   4.363
 1217ETH     H3 4773   1.694   3.117   4.372
 1217ETH     H4 4774   1.697   3.246   4.493
 1217ETH     H5 4775   1.644   3.395   4.324
 1218ETH      C 4776   2.373   0.691   2.423
 1218ETH     C1 4777   2.477   0.803   2.408
 1218ETH      O 4778   2.435   0.920   2.473
 1218ETH      H 4779   2.363   0.661   2.529
 1218ETH     H1 4780   2.406   0.603   2.366
 1218ETH     H2 4781   2.275   0.722   2.386
 1218ETH     H3 4782   2.572   0.770   2.452
 1218ETH     H4 4783   2.494   0.824   2.302
 1218ETH     H5 4784   2.338   0.920   2.480
 1219ETH      C 4785   5.125   1.383   4.437
 1219ETH     C1 4786   5.016   1.378   4.544
 1219ETH      O 4787   4.891   1.344   4.484
 1219ETH      H 4788   5.139   1.284   4.392
 1219ETH     H1 4789   5.221   1.414   4.482
 1219ETH     H2 4790   5.100   1.454   4.358
 1219ETH     H3 4791   5.043   1.305   4.621
 1219ETH     H4 4792   5.009   1.476   4.593
 1219ETH     H5 4793   4.877   1.405   4.410
 1220ETH      C 4794   5.080   5.403   0.659
 1220ETH     C1 4795   5.221   5.433   0.605
 1220ETH      O 4796   5.296   5.502   0.704
 1220ETH      H 4797   5.086   5.341   0.749
 1220ETH     H1 4798   5.024   5.348   0.583
 1220ETH     H2 4799   5.027   5.496   0.682
 1220ETH     H3 4800   5.270   5.338   0.579
 1220ETH     H4 4801   5.213   5.493   0.514
 1220ETH     H5 4802   5.250   5.586   0.722
 1221ETH      C 4803   5.270   1.812   2.062
 1221ETH     C1 4804   5.150   1.879   1.993
 1221ETH      O 4805   5.150   1.848   1.854
 1221ETH      H 4806   5.264   1.703   2.052
 1221ETH     H1 4807   5.271   1.837   2.168
 1221ETH     H2 4808   5.364   1.845   2.017
 1221ETH     H3 4809   5.057   1.844   2.040
 1221ETH     H4 4810   5.156   1.988   2.008
 1221ETH     H5 4811   5.239   1.867   1.819
 1222ETH      C 4812   5.431   2.688   0.953
 1222ETH     C1 4813   5.285   2.698   0.998
 1222ETH      O 4814   5.219   2.795   0.919
 1222ETH      H 4815   5.436   2.658   0.847
 1222ETH     H1 4816   5.484   2.613   1.013
 1222ETH     H2 4817   5.482   2.784   0.964
 1222ETH     H3 4818   5.236   2.601   0.987
 1222ETH     H4 4819   5.281   2.727   1.104
 1222ETH     H5 4820   5.269   2.879   0.928
 1223ETH      C 4821   4.495   1.035   2.960
 1223ETH     C1 4822   4.640   1.068   2.921
 1223ETH      O 4823   4.688   1.178   2.998
 1223ETH      H 4824   4.490   1.008   3.066
 1223ETH     H1 4825   4.458   0.951   2.900
 1223ETH     H2 4826   4.430   1.122   2.942
 1223ETH     H3 4827   4.703   0.980   2.938
 1223ETH     H4 4828   4.646   1.092   2.814
 1223ETH     H5 4829   4.630   1.254   2.980
 1224ETH      C 4830   4.057   4.907   2.619
 1224ETH     C1 4831   4.114   4.995   2.732
 1224ETH      O 4832   4.124   5.130   2.686
 1224ETH      H 4833   3.955   4.939   2.592
 1224ETH     H1 4834   4.051   4.803   2.653
 1224ETH     H2 4835   4.120   4.911   2.530
 1224ETH     H3 4836   4.050   4.989   2.820
 1224ETH     H4 4837   4.213   4.958   2.760
 1224ETH     H5 4838   4.165   5.127   2.598
 1225ETH      C 4839   2.711   0.368   3.989
 1225ETH     C1 4840   2.711   0.501   3.911
 1225ETH      O 4841   2.695   0.607   4.005
 1225ETH      H 4842   2.792   0.368   4.062
 1225ETH     H1 4843   2.725   0.283   3.921
 1225ETH     H2 4844   2.616   0.354   4.041
 1225ETH     H3 4845   2.805   0.511   3.856
 1225ETH     H4 4846   2.629   0.501   3.838
 1225ETH     H5 4847   2.602   0.607   4.032
 1226ETH      C 4848   3.455   2.855   2.006
 1226ETH     C1 4849   3.366   2.967   2.063
 1226ETH      O 4850   3.381   2.970   2.204
 1226ETH      H 4851   3.560   2.873   2.032
 1226ETH     H1 4852   3.447   2.852   1.896
 1226ETH     H2 4853   3.425   2.757   2.045
 1226ETH     H3 4854   3.396   3.063   2.020
 1226ETH     H4 4855   3.261   2.949   2.036
 1226ETH     H5 4856   3.347   2.885   2.238
 1227ETH      C 4857   0.234   4.798   0.839
 1227ETH     C1 4858   0.281   4.736   0.971
 1227ETH      O 4859   0.173   4.740   1.064
 1227ETH      H 4860   0.150   4.742   0.797
 1227ETH     H1 4861   0.316   4.797   0.766
 1227ETH     H2 4862   0.203   4.903   0.853
 1227ETH     H3 4863   0.314   4.633   0.953
 1227ETH     H4 4864   0.367   4.793   1.009
 1227ETH     H5 4865   0.151   4.833   1.077
 1228ETH      C 4866   4.626   3.128   0.710
 1228ETH     C1 4867   4.528   3.009   0.709
 1228ETH      O 4868   4.582   2.903   0.630
 1228ETH      H 4869   4.722   3.098   0.753
 1228ETH     H1 4870   4.585   3.210   0.770
 1228ETH     H2 4871   4.643   3.165   0.608
 1228ETH     H3 4872   4.512   2.975   0.812
 1228ETH     H4 4873   4.432   3.041   0.669
 1228ETH     H5 4874   4.602   2.938   0.542
 1229ETH      C 4875   3.898   0.704   3.644
 1229ETH     C1 4876   3.771   0.782   3.680
 1229ETH      O 4877   3.688   0.799   3.564
 1229ETH      H 4878   3.873   0.603   3.609
 1229ETH     H1 4879   3.962   0.693   3.732
 1229ETH     H2 4880   3.955   0.755   3.566
 1229ETH     H3 4881   3.715   0.728   3.758
 1229ETH     H4 4882   3.799   0.880   3.720
 1229ETH     H5 4883   3.747   0.817   3.489
 1230ETH      C 4884   2.305   1.862   1.393
 1230ETH     C1 4885   2.233   1.841   1.527
 1230ETH      O 4886   2.299   1.737   1.600
 1230ETH      H 4887   2.408   1.895   1.408
 1230ETH     H1 4888   2.252   1.939   1.336
 1230ETH     H2 4889   2.305   1.770   1.333
 1230ETH     H3 4890   2.234   1.935   1.583
 1230ETH     H4 4891   2.129   1.814   1.508
 1230ETH     H5 4892   2.300   1.659   1.542
 1231ETH      C 4893   2.389   2.633   4.516
 1231ETH     C1 4894   2.310   2.734   4.430
 1231ETH      O 4895   2.273   2.846   4.511
 1231ETH      H 4896   2.482   2.678   4.553
 1231ETH     H1 4897   2.414   2.544   4.457
 1231ETH     H2 4898   2.330   2.601   4.602
 1231ETH     H3 4899   2.372   2.766   4.345
 1231ETH     H4 4900   2.220   2.685   4.390
 1231ETH     H5 4901   2.230   2.810   4.590
 1232ETH      C 4902   1.280   1.536   0.230
 1232ETH     C1 4903   1.357   1.587   0.353
 1232ETH      O 4904   1.270   1.660   0.439
 1232ETH      H 4905   1.203   1.464   0.261
 1232ETH     H1 4906   1.349   1.484   0.163
 1232ETH     H2 4907   1.233   1.618   0.175
 1232ETH     H3 4908   1.398   1.501   0.406
 1232ETH     H4 4909   1.440   1.651   0.320
 1232ETH     H5 4910   1.224   1.727   0.385
 1233ETH      C 4911   4.620   1.263   0.472
 1233ETH     C1 4912   4.554   1.128   0.507
 1233ETH      O 4913   4.549   1.047   0.390
 1233ETH      H 4914   4.722   1.247   0.436
 1233ETH     H1 4915   4.624   1.327   0.560
 1233ETH     H2 4916   4.563   1.315   0.393
 1233ETH     H3 4917   4.611   1.079   0.586
 1233ETH     H4 4918   4.452   1.146   0.545
 1233ETH     H5 4919   4.498   1.095   0.322
 1234ETH      C 4920   3.721   1.788   2.104
 1234ETH     C1 4921   3.570   1.792   2.091
 1234ETH      O 4922   3.539   1.902   2.007
 1234ETH      H 4923   3.765   1.780   2.004
 1234ETH     H1 4924   3.754   1.702   2.164
 1234ETH     H2 4925   3.756   1.880   2.151
 1234ETH     H3 4926   3.533   1.698   2.048
 1234ETH     H4 4927   3.526   1.803   2.191
 1234ETH     H5 4928   3.517   1.977   2.066
 1235ETH      C 4929   4.262   1.462   3.849
 1235ETH     C1 4930   4.378   1.552   3.892
 1235ETH      O 4931   4.483   1.538   3.797
 1235ETH      H 4932   4.227   1.491   3.749
 1235ETH     H1 4933   4.178   1.471   3.919
 1235ETH     H2 4934   4.293   1.357   3.845
 1235ETH     H3 4935   4.343   1.656   3.897
 1235ETH     H4 4936   4.412   1.523   3.993
 1235ETH     H5 4937   4.517   1.447   3.806
 1236ETH      C 4938   5.099   0.770   3.489
 1236ETH     C1 4939   5.242   0.824   3.503
 1236ETH      O 4940   5.330   0.748   3.420
 1236ETH      H 4941   5.066   0.776   3.385
 1236ETH     H1 4942   5.030   0.829   3.550
 1236ETH     H2 4943   5.093   0.665   3.521
 1236ETH     H3 4944   5.244   0.930   3.474
 1236ETH     H4 4945   5.273   0.817   3.609
 1236ETH     H5 4946   5.326   0.656   3.452
 1237ETH      C 4947   4.359   3.596   0.554
 1237ETH     C1 4948   4.360   3.530   0.693
 1237ETH      O 4949   4.366   3.630   0.794
 1237ETH      H 4950   4.267   3.654   0.540
 1237ETH     H1 4951   4.364   3.519   0.476
 1237ETH     H2 4952   4.444   3.663   0.540
 1237ETH     H3 4953   4.270   3.469   0.705
 1237ETH     H4 4954   4.447   3.464   0.701
 1237ETH     H5 4955   4.440   3.690   0.773
 1238ETH      C 4956   5.141   1.844   0.543
 1238ETH     C1 4957   5.256   1.939   0.581
 1238ETH      O 4958   5.364   1.918   0.491
 1238ETH      H 4959   5.107   1.864   0.441
 1238ETH     H1 4960   5.056   1.859   0.611
 1238ETH     H2 4961   5.173   1.739   0.550
 1238ETH     H3 4962   5.221   2.042   0.573
 1238ETH     H4 4963   5.287   1.920   0.684
 1238ETH     H5 4964   5.389   1.824   0.495
 1239ETH      C 4965   4.074   1.114   2.290
 1239ETH     C1 4966   4.019   1.158   2.426
 1239ETH      O 4967   3.907   1.242   2.405
 1239ETH      H 4968   3.997   1.061   2.232
 1239ETH     H1 4969   4.160   1.047   2.302
 1239ETH     H2 4970   4.106   1.202   2.232
 1239ETH     H3 4971   3.990   1.070   2.484
 1239ETH     H4 4972   4.098   1.212   2.481
 1239ETH     H5 4973   3.934   1.313   2.344
 1240ETH      C 4974   2.523   2.005   2.836
 1240ETH     C1 4975   2.523   1.863   2.893
 1240ETH      O 4976   2.435   1.782   2.817
 1240ETH      H 4977   2.561   2.006   2.733
 1240ETH     H1 4978   2.588   2.067   2.898
 1240ETH     H2 4979   2.422   2.049   2.837
 1240ETH     H3 4980   2.625   1.822   2.889
 1240ETH     H4 4981   2.494   1.867   2.999
 1240ETH     H5 4982   2.356   1.834   2.796
 1241ETH      C 4983   3.949   1.093   4.327
 1241ETH     C1 4984   3.918   0.944   4.347
 1241ETH      O 4985   3.777   0.926   4.354
 1241ETH      H 4986   3.907   1.129   4.233
 1241ETH     H1 4987   4.058   1.109   4.325
 1241ETH     H2 4988   3.908   1.152   4.409
 1241ETH     H3 4989   3.960   0.886   4.263
 1241ETH     H4 4990   3.966   0.908   4.439
 1241ETH     H5 4991   3.745   0.978   4.430
 1242ETH      C 4992   0.915   1.693   0.503
 1242ETH     C1 4993   0.799   1.600   0.541
 1242ETH      O 4994   0.830   1.467   0.500
 1242ETH      H 4995   1.006   1.665   0.557
 1242ETH     H1 4996   0.890   1.797   0.529
 1242ETH     H2 4997   0.936   1.688   0.396
 1242ETH     H3 4998   0.782   1.604   0.649
 1242ETH     H4 4999   0.706   1.634   0.492
 1242ETH     H5 5000   0.850   1.469   0.405
 1243ETH      C 5001   0.518   0.913   0.701
 1243ETH     C1 5002   0.618   0.815   0.638
 1243ETH      O 5003   0.582   0.681   0.671
 1243ETH      H 5004   0.417   0.897   0.661
 1243ETH     H1 5005   0.547   1.016   0.678
 1243ETH     H2 5006   0.514   0.903   0.810
 1243ETH     H3 5007   0.619   0.828   0.529
 1243ETH     H4 5008   0.719   0.838   0.676
 1243ETH     H5 5009   0.565   0.679   0.767
 1244ETH      C 5010   0.623   4.221   1.571
 1244ETH     C1 5011   0.582   4.336   1.664
 1244ETH      O 5012   0.692   4.426   1.677
 1244ETH      H 5013   0.650   4.260   1.472
 1244ETH     H1 5014   0.540   4.151   1.559
 1244ETH     H2 5015   0.709   4.167   1.612
 1244ETH     H3 5016   0.495   4.388   1.621
 1244ETH     H4 5017   0.552   4.297   1.761
 1244ETH     H5 5018   0.761   4.380   1.726
 1245ETH      C 5019   0.545   0.459   5.426
 1245ETH     C1 5020   0.416   0.542   5.433
 1245ETH      O 5021   0.315   0.481   5.353
 1245ETH      H 5022   0.527   0.357   5.463
 1245ETH     H1 5023   0.623   0.504   5.488
 1245ETH     H2 5024   0.582   0.453   5.323
 1245ETH     H3 5025   0.382   0.549   5.537
 1245ETH     H4 5026   0.436   0.644   5.398
 1245ETH     H5 5027   0.349   0.473   5.262
 1246ETH      C 5028   5.582   2.768   1.790
 1246ETH     C1 5029   5.556   2.915   1.752
 1246ETH      O 5030   5.466   2.920   1.642
 1246ETH      H 5031   5.488   2.719   1.817
 1246ETH     H1 5032   5.649   2.762   1.876
 1246ETH     H2 5033   5.627   2.713   1.707
 1246ETH     H3 5034   5.514   2.968   1.837
 1246ETH     H4 5035   5.652   2.963   1.726
 1246ETH     H5 5036   5.510   2.879   1.565
 1247ETH      C 5037   5.075   0.380   4.134
 1247ETH     C1 5038   5.073   0.530   4.163
 1247ETH      O 5039   4.953   0.563   4.233
 1247ETH      H 5040   5.073   0.323   4.227
 1247ETH     H1 5041   5.166   0.353   4.079
 1247ETH     H2 5042   4.988   0.351   4.073
 1247ETH     H3 5043   5.161   0.556   4.224
 1247ETH     H4 5044   5.079   0.586   4.069
 1247ETH     H5 5045   4.879   0.534   4.178
 1248ETH      C 5046   3.426   5.268   1.245
 1248ETH     C1 5047   3.552   5.183   1.268
 1248ETH      O 5048   3.588   5.117   1.147
 1248ETH      H 5049   3.445   5.345   1.170
 1248ETH     H1 5050   3.397   5.318   1.338
 1248ETH     H2 5051   3.342   5.206   1.212
 1248ETH     H3 5052   3.634   5.247   1.304
 1248ETH     H4 5053   3.532   5.108   1.346
 1248ETH     H5 5054   3.510   5.067   1.117
 1249ETH      C 5055   3.211   0.243   1.053
 1249ETH     C1 5056   3.068   0.212   1.098
 1249ETH      O 5057   3.000   0.146   0.991
 1249ETH      H 5058   3.264   0.151   1.028
 1249ETH     H1 5059   3.266   0.295   1.133
 1249ETH     H2 5060   3.210   0.308   0.964
 1249ETH     H3 5061   3.069   0.149   1.187
 1249ETH     H4 5062   3.016   0.305   1.123
 1249ETH     H5 5063   2.984   0.215   0.924
 1250ETH      C 5064   1.290   4.597   3.380
 1250ETH     C1 5065   1.293   4.662   3.241
 1250ETH      O 5066   1.162   4.706   3.205
 1250ETH      H 5067   1.257   4.669   3.455
 1250ETH     H1 5068   1.389   4.561   3.408
 1250ETH     H2 5069   1.221   4.511   3.382
 1250ETH     H3 5070   1.363   4.746   3.242
 1250ETH     H4 5071   1.331   4.589   3.167
 1250ETH     H5 5072   1.102   4.630   3.216
 1251ETH      C 5073   2.649   5.572   1.073
 1251ETH     C1 5074   2.501   5.566   1.113
 1251ETH      O 5075   2.449   5.446   1.058
 1251ETH      H 5076   2.701   5.481   1.107
 1251ETH     H1 5077   2.698   5.659   1.118
 1251ETH     H2 5078   2.656   5.578   0.964
 1251ETH     H3 5079   2.492   5.566   1.222
 1251ETH     H4 5080   2.447   5.654   1.076
 1251ETH     H5 5081   2.426   5.463   0.965
 1252ETH      C 5082   2.679   2.397   4.703
 1252ETH     C1 5083   2.716   2.251   4.729
 1252ETH      O 5084   2.675   2.171   4.618
 1252ETH      H 5085   2.731   2.434   4.613
 1252ETH     H1 5086   2.709   2.460   4.787
 1252ETH     H2 5087   2.571   2.408   4.688
 1252ETH     H3 5088   2.824   2.243   4.745
 1252ETH     H4 5089   2.666   2.217   4.821
 1252ETH     H5 5090   2.578   2.174   4.615
 1253ETH      C 5091   5.190   4.802   0.870
 1253ETH     C1 5092   5.271   4.714   0.966
 1253ETH      O 5093   5.262   4.578   0.925
 1253ETH      H 5094   5.224   4.787   0.767
 1253ETH     H1 5095   5.203   4.908   0.895
 1253ETH     H2 5096   5.083   4.778   0.876
 1253ETH     H3 5097   5.376   4.747   0.963
 1253ETH     H4 5098   5.235   4.728   1.069
 1253ETH     H5 5099   5.175   4.543   0.949
 1254ETH      C 5100   4.926   2.602   2.319
 1254ETH     C1 5101   4.835   2.487   2.365
 1254ETH      O 5102   4.717   2.487   2.286
 1254ETH      H 5103   4.955   2.589   2.214
 1254ETH     H1 5104   5.018   2.603   2.380
 1254ETH     H2 5105   4.877   2.699   2.330
 1254ETH     H3 5106   4.888   2.392   2.354
 1254ETH     H4 5107   4.810   2.501   2.471
 1254ETH     H5 5108   4.675   2.575   2.294
 1255ETH      C 5109   4.516   4.037   0.931
 1255ETH     C1 5110   4.647   4.073   1.003
 1255ETH      O 5111   4.721   4.168   0.926
 1255ETH      H 5112   4.452   4.125   0.922
 1255ETH     H1 5113   4.462   3.961   0.988
 1255ETH     H2 5114   4.535   3.997   0.831
 1255ETH     H3 5115   4.624   4.114   1.102
 1255ETH     H4 5116   4.707   3.982   1.017
 1255ETH     H5 5117   4.724   4.134   0.835
 1256ETH      C 5118   4.591   2.655   1.182
 1256ETH     C1 5119   4.659   2.778   1.242
 1256ETH      O 5120   4.733   2.843   1.139
 1256ETH      H 5121   4.528   2.684   1.097
 1256ETH     H1 5122   4.527   2.607   1.257
 1256ETH     H2 5123   4.665   2.582   1.148
 1256ETH     H3 5124   4.582   2.846   1.281
 1256ETH     H4 5125   4.723   2.749   1.326
 1256ETH     H5 5126   4.810   2.788   1.115
 1257ETH      C 5127   2.525   3.027   5.124
 1257ETH     C1 5128   2.673   3.007   5.158
 1257ETH      O 5129   2.727   2.916   5.063
 1257ETH      H 5130   2.514   3.068   5.023
 1257ETH     H1 5131   2.478   3.097   5.195
 1257ETH     H2 5132   2.471   2.932   5.129
 1257ETH     H3 5133   2.725   3.103   5.154
 1257ETH     H4 5134   2.683   2.968   5.260
 1257ETH     H5 5135   2.698   2.827   5.089
 1258ETH      C 5136   1.776   0.942   2.172
 1258ETH     C1 5137   1.891   0.904   2.079
 1258ETH      O 5138   2.007   0.875   2.156
 1258ETH      H 5139   1.748   0.858   2.236
 1258ETH     H1 5140   1.688   0.971   2.113
 1258ETH     H2 5141   1.804   1.026   2.236
 1258ETH     H3 5142   1.861   0.817   2.019
 1258ETH     H4 5143   1.911   0.988   2.011
 1258ETH     H5 5144   2.012   0.939   2.228
 1259ETH      C 5145   2.197   1.242   0.247
 1259ETH     C1 5146   2.075   1.333   0.249
 1259ETH      O 5147   1.987   1.286   0.350
 1259ETH      H 5148   2.246   1.241   0.345
 1259ETH     H1 5149   2.270   1.276   0.172
 1259ETH     H2 5150   2.168   1.139   0.222
 1259ETH     H3 5151   2.106   1.436   0.270
 1259ETH     H4 5152   2.026   1.332   0.151
 1259ETH     H5 5153   1.959   1.197   0.323
 1260ETH      C 5154   4.784   1.749   2.873
 1260ETH     C1 5155   4.836   1.733   3.016
 1260ETH      O 5156   4.976   1.705   3.014
 1260ETH      H 5157   4.834   1.833   2.823
 1260ETH     H1 5158   4.676   1.768   2.874
 1260ETH     H2 5159   4.803   1.658   2.815
 1260ETH     H3 5160   4.817   1.825   3.073
 1260ETH     H4 5161   4.781   1.652   3.064
 1260ETH     H5 5162   4.988   1.622   2.964
 1261ETH      C 5163   1.006   1.715   3.813
 1261ETH     C1 5164   0.914   1.592   3.825
 1261ETH      O 5165   0.971   1.498   3.916
 1261ETH      H 5166   1.015   1.766   3.910
 1261ETH     H1 5167   0.964   1.786   3.741
 1261ETH     H2 5168   1.106   1.686   3.779
 1261ETH     H3 5169   0.815   1.624   3.860
 1261ETH     H4 5170   0.903   1.546   3.726
 1261ETH     H5 5171   1.062   1.480   3.887
 1262ETH      C 5172   0.874   5.365   5.018
 1262ETH     C1 5173   0.983   5.289   5.096
 1262ETH      O 5174   0.962   5.308   5.235
 1262ETH      H 5175   0.775   5.324   5.042
 1262ETH     H1 5176   0.890   5.355   4.910
 1262ETH     H2 5177   0.873   5.471   5.043
 1262ETH     H3 5178   0.979   5.183   5.070
 1262ETH     H4 5179   1.082   5.328   5.068
 1262ETH     H5 5180   0.945   5.403   5.248
 1263ETH      C 5181   4.100   4.388   0.253
 1263ETH     C1 5182   4.065   4.280   0.356
 1263ETH      O 5183   3.942   4.222   0.320
 1263ETH      H 5184   4.098   4.346   0.152
 1263ETH     H1 5185   4.200   4.427   0.272
 1263ETH     H2 5186   4.028   4.470   0.257
 1263ETH     H3 5187   4.143   4.203   0.356
 1263ETH     H4 5188   4.060   4.324   0.457
 1263ETH     H5 5189   3.872   4.289   0.330
 1264ETH      C 5190   4.166   3.085   0.859
 1264ETH     C1 5191   4.040   3.116   0.942
 1264ETH      O 5192   3.932   3.148   0.855
 1264ETH      H 5193   4.148   2.999   0.794
 1264ETH     H1 5194   4.250   3.061   0.925
 1264ETH     H2 5195   4.193   3.171   0.797
 1264ETH     H3 5196   4.015   3.029   1.004
 1264ETH     H4 5197   4.061   3.200   1.009
 1264ETH     H5 5198   3.959   3.223   0.800
 1265ETH      C 5199   4.716   3.683   0.582
 1265ETH     C1 5200   4.822   3.658   0.689
 1265ETH      O 5201   4.867   3.785   0.735
 1265ETH      H 5202   4.635   3.744   0.624
 1265ETH     H1 5203   4.674   3.588   0.547
 1265ETH     H2 5204   4.758   3.737   0.497
 1265ETH     H3 5205   4.778   3.601   0.772
 1265ETH     H4 5206   4.904   3.599   0.648
 1265ETH     H5 5207   4.922   3.824   0.664
 1266ETH      C 5208   3.791   0.564   1.048
 1266ETH     C1 5209   3.919   0.640   1.085
 1266ETH      O 5210   4.016   0.611   0.986
 1266ETH      H 5211   3.757   0.593   0.948
 1266ETH     H1 5212   3.711   0.586   1.120
 1266ETH     H2 5213   3.811   0.456   1.049
 1266ETH     H3 5214   3.898   0.747   1.089
 1266ETH     H4 5215   3.953   0.608   1.185
 1266ETH     H5 5216   4.052   0.523   1.006
 1267ETH      C 5217   2.463   1.040   1.342
 1267ETH     C1 5218   2.408   0.907   1.395
 1267ETH      O 5219   2.268   0.902   1.368
 1267ETH      H 5220   2.450   1.046   1.233
 1267ETH     H1 5221   2.570   1.049   1.364
 1267ETH     H2 5222   2.412   1.125   1.388
 1267ETH     H3 5223   2.461   0.825   1.347
 1267ETH     H4 5224   2.426   0.900   1.503
 1267ETH     H5 5225   2.228   0.967   1.428
 1268ETH      C 5226   3.404   2.459   0.585
 1268ETH     C1 5227   3.543   2.402   0.554
 1268ETH      O 5228   3.611   2.490   0.465
 1268ETH      H 5229   3.414   2.558   0.632
 1268ETH     H1 5230   3.350   2.394   0.654
 1268ETH     H2 5231   3.345   2.469   0.493
 1268ETH     H3 5232   3.599   2.390   0.648
 1268ETH     H4 5233   3.532   2.302   0.510
 1268ETH     H5 5234   3.574   2.471   0.376
 1269ETH      C 5235   3.383   5.312   2.791
 1269ETH     C1 5236   3.490   5.275   2.688
 1269ETH      O 5237   3.569   5.391   2.662
 1269ETH      H 5238   3.430   5.348   2.884
 1269ETH     H1 5239   3.322   5.224   2.816
 1269ETH     H2 5240   3.317   5.390   2.752
 1269ETH     H3 5241   3.553   5.194   2.728
 1269ETH     H4 5242   3.443   5.239   2.596
 1269ETH     H5 5243   3.513   5.454   2.614
 1270ETH      C 5244   4.822   3.387   3.362
 1270ETH     C1 5245   4.723   3.485   3.430
 1270ETH      O 5246   4.706   3.603   3.352
 1270ETH      H 5247   4.782   3.345   3.269
 1270ETH     H1 5248   4.843   3.302   3.428
 1270ETH     H2 5249   4.917   3.437   3.338
 1270ETH     H3 5250   4.628   3.434   3.446
 1270ETH     H4 5251   4.764   3.512   3.528
 1270ETH     H5 5252   4.787   3.616   3.300
 1271ETH      C 5253   1.503   2.135   3.561
 1271ETH     C1 5254   1.423   2.179   3.437
 1271ETH      O 5255   1.345   2.071   3.389
 1271ETH      H 5256   1.436   2.107   3.643
 1271ETH     H1 5257   1.567   2.218   3.596
 1271ETH     H2 5258   1.568   2.049   3.538
 1271ETH     H3 5259   1.359   2.264   3.464
 1271ETH     H4 5260   1.493   2.212   3.359
 1271ETH     H5 5261   1.400   1.990   3.395
 1272ETH      C 5262   1.676   2.991   2.537
 1272ETH     C1 5263   1.609   2.894   2.439
 1272ETH      O 5264   1.663   2.916   2.309
 1272ETH      H 5265   1.785   2.976   2.538
 1272ETH     H1 5266   1.638   2.975   2.638
 1272ETH     H2 5267   1.656   3.095   2.508
 1272ETH     H3 5268   1.628   2.791   2.471
 1272ETH     H4 5269   1.501   2.911   2.439
 1272ETH     H5 5270   1.630   3.001   2.277
 1273ETH      C 5271   4.206   0.889   5.243
 1273ETH     C1 5272   4.292   1.011   5.282
 1273ETH      O 5273   4.414   0.966   5.341
 1273ETH      H 5274   4.256   0.829   5.166
 1273ETH     H1 5275   4.110   0.922   5.202
 1273ETH     H2 5276   4.186   0.826   5.330
 1273ETH     H3 5277   4.311   1.072   5.193
 1273ETH     H4 5278   4.236   1.072   5.354
 1273ETH     H5 5279   4.390   0.895   5.403
 1274ETH      C 5280   4.068   4.545   3.427
 1274ETH     C1 5281   4.137   4.668   3.367
 1274ETH      O 5282   4.176   4.637   3.234
 1274ETH      H 5283   3.982   4.516   3.366
 1274ETH     H1 5284   4.034   4.566   3.529
 1274ETH     H2 5285   4.138   4.460   3.431
 1274ETH     H3 5286   4.067   4.753   3.366
 1274ETH     H4 5287   4.224   4.695   3.427
 1274ETH     H5 5288   4.221   4.551   3.236
 1275ETH      C 5289   0.738   3.137   3.914
 1275ETH     C1 5290   0.792   3.084   3.781
 1275ETH      O 5291   0.857   2.959   3.803
 1275ETH      H 5292   0.662   3.069   3.955
 1275ETH     H1 5293   0.690   3.235   3.899
 1275ETH     H2 5294   0.818   3.150   3.988
 1275ETH     H3 5295   0.710   3.073   3.710
 1275ETH     H4 5296   0.864   3.156   3.740
 1275ETH     H5 5297   0.915   2.968   3.880
 1276ETH      C 5298   3.699   4.999   4.919
 1276ETH     C1 5299   3.695   5.117   5.016
 1276ETH      O 5300   3.770   5.224   4.961
 1276ETH      H 5301   3.661   5.027   4.820
 1276ETH     H1 5302   3.633   4.919   4.957
 1276ETH     H2 5303   3.801   4.959   4.909
 1276ETH     H3 5304   3.590   5.147   5.032
 1276ETH     H4 5305   3.736   5.087   5.114
 1276ETH     H5 5306   3.862   5.193   4.954
 1277ETH      C 5307   3.640   1.134   4.613
 1277ETH     C1 5308   3.556   1.250   4.669
 1277ETH      O 5309   3.636   1.326   4.758
 1277ETH      H 5310   3.728   1.173   4.560
 1277ETH     H1 5311   3.580   1.074   4.544
 1277ETH     H2 5312   3.675   1.069   4.695
 1277ETH     H3 5313   3.521   1.312   4.586
 1277ETH     H4 5314   3.468   1.209   4.721
 1277ETH     H5 5315   3.667   1.267   4.829
 1278ETH      C 5316   1.275   4.760   2.829
 1278ETH     C1 5317   1.379   4.871   2.813
 1278ETH      O 5318   1.371   4.960   2.924
 1278ETH      H 5319   1.295   4.701   2.919
 1278ETH     H1 5320   1.278   4.693   2.743
 1278ETH     H2 5321   1.173   4.801   2.836
 1278ETH     H3 5322   1.479   4.826   2.806
 1278ETH     H4 5323   1.360   4.925   2.719
 1278ETH     H5 5324   1.279   4.993   2.929
 1279ETH      C 5325   0.335   1.602   2.197
 1279ETH     C1 5326   0.411   1.718   2.130
 1279ETH      O 5327   0.327   1.833   2.121
 1279ETH      H 5328   0.297   1.631   2.296
 1279ETH     H1 5329   0.403   1.517   2.212
 1279ETH     H2 5330   0.252   1.569   2.135
 1279ETH     H3 5331   0.501   1.741   2.189
 1279ETH     H4 5332   0.444   1.687   2.030
 1279ETH     H5 5333   0.243   1.803   2.083
 1280ETH      C 5334   4.468   3.511   4.252
 1280ETH     C1 5335   4.467   3.532   4.100
 1280ETH      O 5336   4.577   3.614   4.062
 1280ETH      H 5337   4.562   3.462   4.283
 1280ETH     H1 5338   4.385   3.446   4.282
 1280ETH     H2 5339   4.459   3.606   4.305
 1280ETH     H3 5340   4.475   3.434   4.051
 1280ETH     H4 5341   4.372   3.578   4.070
 1280ETH     H5 5342   4.572   3.697   4.113
 1281ETH      C 5343   4.586   1.842   3.859
 1281ETH     C1 5344   4.674   1.772   3.963
 1281ETH      O 5345   4.663   1.839   4.089
 1281ETH      H 5346   4.480   1.838   3.888
 1281ETH     H1 5347   4.596   1.791   3.762
 1281ETH     H2 5348   4.614   1.947   3.845
 1281ETH     H3 5349   4.644   1.667   3.974
 1281ETH     H4 5350   4.779   1.774   3.929
 1281ETH     H5 5351   4.668   1.935   4.072
 1282ETH      C 5352   1.787   2.279   4.991
 1282ETH     C1 5353   1.887   2.351   4.901
 1282ETH      O 5354   1.929   2.471   4.965
 1282ETH      H 5355   1.835   2.254   5.087
 1282ETH     H1 5356   1.752   2.186   4.945
 1282ETH     H2 5357   1.699   2.342   5.011
 1282ETH     H3 5358   1.973   2.286   4.882
 1282ETH     H4 5359   1.838   2.373   4.805
 1282ETH     H5 5360   1.849   2.523   4.983
 1283ETH      C 5361   2.687   2.650   4.207
 1283ETH     C1 5362   2.637   2.537   4.116
 1283ETH      O 5363   2.497   2.519   4.135
 1283ETH      H 5364   2.637   2.744   4.182
 1283ETH     H1 5365   2.795   2.664   4.194
 1283ETH     H2 5366   2.668   2.627   4.312
 1283ETH     H3 5367   2.659   2.562   4.011
 1283ETH     H4 5368   2.691   2.444   4.140
 1283ETH     H5 5369   2.483   2.504   4.230
 1284ETH      C 5370   2.100   5.348   2.872
 1284ETH     C1 5371   1.975   5.359   2.962
 1284ETH      O 5372   1.920   5.489   2.947
 1284ETH      H 5373   2.072   5.364   2.767
 1284ETH     H1 5374   2.144   5.248   2.881
 1284ETH     H2 5375   2.175   5.422   2.901
 1284ETH     H3 5376   1.902   5.282   2.934
 1284ETH     H4 5377   2.004   5.341   3.066
 1284ETH     H5 5378   1.986   5.553   2.979
 1285ETH      C 5379   0.896   2.484   5.440
 1285ETH     C1 5380   0.883   2.522   5.292
 1285ETH      O 5381   1.010   2.560   5.240
 1285ETH      H 5382   0.964   2.399   5.451
 1285ETH     H1 5383   0.798   2.457   5.480
 1285ETH     H2 5384   0.935   2.569   5.497
 1285ETH     H3 5385   0.840   2.439   5.235
 1285ETH     H4 5386   0.813   2.607   5.287
 1285ETH     H5 5387   1.039   2.637   5.291
 1286ETH      C 5388   4.745   2.335   0.652
 1286ETH     C1 5389   4.883   2.328   0.719
 1286ETH      O 5390   4.937   2.197   0.701
 1286ETH      H 5391   4.754   2.317   0.544
 1286ETH     H1 5392   4.701   2.435   0.665
 1286ETH     H2 5393   4.677   2.262   0.696
 1286ETH     H3 5394   4.949   2.404   0.674
 1286ETH     H4 5395   4.874   2.351   0.826
 1286ETH     H5 5396   4.872   2.134   0.735
 1287ETH      C 5397   4.354   4.792   0.353
 1287ETH     C1 5398   4.338   4.675   0.451
 1287ETH      O 5399   4.404   4.561   0.397
 1287ETH      H 5400   4.459   4.818   0.339
 1287ETH     H1 5401   4.302   4.880   0.391
 1287ETH     H2 5402   4.312   4.766   0.255
 1287ETH     H3 5403   4.381   4.703   0.548
 1287ETH     H4 5404   4.231   4.655   0.466
 1287ETH     H5 5405   4.374   4.553   0.305
 1288ETH      C 5406   1.106   4.899   2.211
 1288ETH     C1 5407   1.027   5.027   2.180
 1288ETH      O 5408   1.089   5.095   2.071
 1288ETH      H 5409   1.110   4.834   2.122
 1288ETH     H1 5410   1.055   4.844   2.291
 1288ETH     H2 5411   1.208   4.922   2.243
 1288ETH     H3 5412   0.924   5.001   2.154
 1288ETH     H4 5413   1.024   5.091   2.269
 1288ETH     H5 5414   1.179   5.121   2.098
 1289ETH      C 5415   0.334   1.569   3.952
 1289ETH     C1 5416   0.217   1.539   4.047
 1289ETH      O 5417   0.149   1.660   4.077
 1289ETH      H 5418   0.297   1.613   3.859
 1289ETH     H1 5419   0.388   1.477   3.927
 1289ETH     H2 5420   0.405   1.639   3.998
 1289ETH     H3 5421   0.149   1.467   4.000
 1289ETH     H4 5422   0.255   1.493   4.139
 1289ETH     H5 5423   0.210   1.718   4.126
 1290ETH      C 5424   0.841   2.304   3.006
 1290ETH     C1 5425   0.847   2.161   2.951
 1290ETH      O 5426   0.961   2.094   3.004
 1290ETH      H 5427   0.814   2.305   3.112
 1290ETH     H1 5428   0.764   2.361   2.953
 1290ETH     H2 5429   0.936   2.356   2.993
 1290ETH     H3 5430   0.755   2.108   2.977
 1290ETH     H4 5431   0.854   2.164   2.842
 1290ETH     H5 5432   1.031   2.161   3.015
 1291ETH      C 5433   5.530   4.789   0.490
 1291ETH     C1 5434   5.450   4.660   0.508
 1291ETH      O 5435   5.518   4.553   0.443
 1291ETH      H 5436   5.630   4.779   0.535
 1291ETH     H1 5437   5.479   4.873   0.539
 1291ETH     H2 5438   5.542   4.813   0.384
 1291ETH     H3 5439   5.438   4.639   0.615
 1291ETH     H4 5440   5.349   4.673   0.465
 1291ETH     H5 5441   5.530   4.579   0.350
 1292ETH      C 5442   4.079   4.174   1.175
 1292ETH     C1 5443   4.149   4.295   1.111
 1292ETH      O 5444   4.253   4.340   1.196
 1292ETH      H 5445   4.149   4.091   1.189
 1292ETH     H1 5446   3.997   4.139   1.111
 1292ETH     H2 5447   4.036   4.201   1.273
 1292ETH     H3 5448   4.189   4.266   1.013
 1292ETH     H4 5449   4.076   4.375   1.095
 1292ETH     H5 5450   4.215   4.356   1.284
 1293ETH      C 5451   0.487   3.284   1.778
 1293ETH     C1 5452   0.623   3.297   1.707
 1293ETH      O 5453   0.726   3.246   1.792
 1293ETH      H 5454   0.463   3.178   1.793
 1293ETH     H1 5455   0.407   3.327   1.716
 1293ETH     H2 5456   0.487   3.334   1.875
 1293ETH     H3 5457   0.620   3.241   1.613
 1293ETH     H4 5458   0.641   3.403   1.684
 1293ETH     H5 5459   0.720   3.294   1.877
 1294ETH      C 5460   5.147   5.030   2.407
 1294ETH     C1 5461   5.275   4.957   2.363
 1294ETH      O 5462   5.366   4.949   2.473
 1294ETH      H 5463   5.099   4.976   2.490
 1294ETH     H1 5464   5.076   5.036   2.324
 1294ETH     H2 5465   5.171   5.132   2.440
 1294ETH     H3 5466   5.249   4.856   2.328
 1294ETH     H4 5467   5.320   5.011   2.279
 1294ETH     H5 5468   5.385   5.040   2.500
 1295ETH      C 5469   4.784   5.603   4.485
 1295ETH     C1 5470   4.811   5.452   4.482
 1295ETH      O 5471   4.748   5.397   4.367
 1295ETH      H 5472   4.824   5.651   4.395
 1295ETH     H1 5473   4.833   5.649   4.573
 1295ETH     H2 5474   4.677   5.623   4.491
 1295ETH     H3 5475   4.919   5.434   4.479
 1295ETH     H4 5476   4.771   5.406   4.574
 1295ETH     H5 5477   4.652   5.406   4.379
 1296ETH      C 5478   1.164   0.856   1.645
 1296ETH     C1 5479   1.067   0.886   1.761
 1296ETH      O 5480   1.032   0.765   1.828
 1296ETH      H 5481   1.261   0.823   1.682
 1296ETH     H1 5482   1.180   0.947   1.585
 1296ETH     H2 5483   1.123   0.779   1.579
 1296ETH     H3 5484   1.115   0.957   1.830
 1296ETH     H4 5485   0.977   0.934   1.722
 1296ETH     H5 5486   1.028   0.695   1.761
 1297ETH      C 5487   2.681   1.230   3.291
 1297ETH     C1 5488   2.557   1.299   3.232
 1297ETH      O 5489   2.539   1.426   3.293
 1297ETH      H 5490   2.771   1.291   3.276
 1297ETH     H1 5491   2.696   1.132   3.244
 1297ETH     H2 5492   2.669   1.214   3.399
 1297ETH     H3 5493   2.571   1.311   3.124
 1297ETH     H4 5494   2.468   1.236   3.248
 1297ETH     H5 5495   2.532   1.412   3.389
 1298ETH      C 5496   2.405   4.953   4.354
 1298ETH     C1 5497   2.268   4.905   4.402
 1298ETH      O 5498   2.166   4.962   4.321
 1298ETH      H 5499   2.426   4.918   4.253
 1298ETH     H1 5500   2.484   4.916   4.421
 1298ETH     H2 5501   2.410   5.063   4.355
 1298ETH     H3 5502   2.264   4.795   4.397
 1298ETH     H4 5503   2.252   4.935   4.507
 1298ETH     H5 5504   2.189   5.055   4.306
 1299ETH      C 5505   2.729   5.390   3.653
 1299ETH     C1 5506   2.797   5.462   3.770
 1299ETH      O 5507   2.938   5.450   3.757
 1299ETH      H 5508   2.765   5.431   3.558
 1299ETH     H1 5509   2.620   5.404   3.658
 1299ETH     H2 5510   2.750   5.282   3.656
 1299ETH     H3 5511   2.769   5.568   3.768
 1299ETH     H4 5512   2.762   5.420   3.865
 1299ETH     H5 5513   2.965   5.357   3.772
 1300ETH      C 5514   2.060   1.351   3.164
 1300ETH     C1 5515   1.983   1.223   3.196
 1300ETH      O 5516   2.053   1.114   3.136
 1300ETH      H 5517   2.162   1.345   3.203
 1300ETH     H1 5518   2.010   1.438   3.209
 1300ETH     H2 5519   2.064   1.366   3.055
 1300ETH     H3 5520   1.978   1.210   3.305
 1300ETH     H4 5521   1.880   1.230   3.158
 1300ETH     H5 5522   2.037   1.120   3.040
 1301ETH      C 5523   3.586   2.621   4.200
 1301ETH     C1 5524   3.734   2.582   4.188
 1301ETH      O 5525   3.813   2.670   4.268
 1301ETH      H 5526   3.552   2.612   4.304
 1301ETH     H1 5527   3.525   2.556   4.137
 1301ETH     H2 5528   3.570   2.725   4.167
 1301ETH     H3 5529   3.746   2.479   4.223
 1301ETH     H4 5530   3.765   2.587   4.083
 1301ETH     H5 5531   3.793   2.761   4.241
 1302ETH      C 5532   1.879   5.254   5.215
 1302ETH     C1 5533   1.773   5.364   5.204
 1302ETH      O 5534   1.674   5.348   5.306
 1302ETH      H 5535   1.930   5.258   5.312
 1302ETH     H1 5536   1.954   5.266   5.135
 1302ETH     H2 5537   1.833   5.155   5.203
 1302ETH     H3 5538   1.821   5.462   5.214
 1302ETH     H4 5539   1.727   5.359   5.105
 1302ETH     H5 5540   1.637   5.258   5.297
 1303ETH      C 5541   3.415   5.379   3.692
 1303ETH     C1 5542   3.292   5.438   3.622
 1303ETH      O 5543   3.198   5.335   3.594
 1303ETH      H 5544   3.389   5.340   3.791
 1303ETH     H1 5545   3.491   5.457   3.706
 1303ETH     H2 5546   3.459   5.298   3.634
 1303ETH     H3 5547   3.247   5.515   3.685
 1303ETH     H4 5548   3.323   5.485   3.528
 1303ETH     H5 5549   3.247   5.262   3.552
 1304ETH      C 5550   1.541   3.460   1.036
 1304ETH     C1 5551   1.397   3.409   1.052
 1304ETH      O 5552   1.325   3.437   0.932
 1304ETH      H 5553   1.589   3.405   0.954
 1304ETH     H1 5554   1.599   3.442   1.127
 1304ETH     H2 5555   1.543   3.567   1.012
 1304ETH     H3 5556   1.399   3.301   1.071
 1304ETH     H4 5557   1.349   3.457   1.138
 1304ETH     H5 5558   1.299   3.530   0.933
 1305ETH      C 5559   1.397   0.862   2.162
 1305ETH     C1 5560   1.417   0.817   2.017
 1305ETH      O 5561   1.289   0.809   1.957
 1305ETH      H 5562   1.339   0.955   2.166
 1305ETH     H1 5563   1.495   0.881   2.208
 1305ETH     H2 5564   1.345   0.785   2.219
 1305ETH     H3 5565   1.478   0.890   1.963
 1305ETH     H4 5566   1.467   0.720   2.013
 1305ETH     H5 5567   1.234   0.749   2.010
 1306ETH      C 5568   1.422   4.372   5.015
 1306ETH     C1 5569   1.287   4.438   4.982
 1306ETH      O 5570   1.305   4.536   4.879
 1306ETH      H 5571   1.465   4.324   4.926
 1306ETH     H1 5572   1.408   4.294   5.091
 1306ETH     H2 5573   1.494   4.445   5.054
 1306ETH     H3 5574   1.213   4.363   4.949
 1306ETH     H4 5575   1.246   4.484   5.072
 1306ETH     H5 5576   1.384   4.587   4.903
 1307ETH      C 5577   4.839   2.955   1.679
 1307ETH     C1 5578   4.957   2.903   1.597
 1307ETH      O 5579   4.992   2.772   1.641
 1307ETH      H 5580   4.750   2.893   1.662
 1307ETH     H1 5581   4.814   3.058   1.649
 1307ETH     H2 5582   4.862   2.956   1.786
 1307ETH     H3 5583   4.929   2.902   1.491
 1307ETH     H4 5584   5.043   2.970   1.609
 1307ETH     H5 5585   5.008   2.776   1.736
 1308ETH      C 5586   5.260   3.317   4.329
 1308ETH     C1 5587   5.266   3.224   4.451
 1308ETH      O 5588   5.173   3.266   4.550
 1308ETH      H 5589   5.161   3.313   4.281
 1308ETH     H1 5590   5.335   3.288   4.255
 1308ETH     H2 5591   5.280   3.421   4.358
 1308ETH     H3 5592   5.245   3.121   4.419
 1308ETH     H4 5593   5.368   3.226   4.492
 1308ETH     H5 5594   5.180   3.362   4.558
 1309ETH      C 5595   1.694   2.750   1.460
 1309ETH     C1 5596   1.555   2.716   1.406
 1309ETH      O 5597   1.571   2.628   1.296
 1309ETH      H 5598   1.746   2.659   1.494
 1309ETH     H1 5599   1.685   2.819   1.545
 1309ETH     H2 5600   1.755   2.798   1.383
 1309ETH     H3 5601   1.496   2.668   1.485
 1309ETH     H4 5602   1.504   2.808   1.375
 1309ETH     H5 5603   1.618   2.677   1.226
 1310ETH      C 5604   2.847   2.188   3.134
 1310ETH     C1 5605   2.992   2.233   3.112
 1310ETH      O 5606   3.019   2.331   3.210
 1310ETH      H 5607   2.836   2.149   3.235
 1310ETH     H1 5608   2.819   2.110   3.062
 1310ETH     H2 5609   2.779   2.273   3.122
 1310ETH     H3 5610   3.060   2.148   3.123
 1310ETH     H4 5611   3.004   2.275   3.011
 1310ETH     H5 5612   2.980   2.415   3.181
 1311ETH      C 5613   3.005   3.819   4.232
 1311ETH     C1 5614   3.068   3.799   4.370
 1311ETH      O 5615   3.030   3.672   4.421
 1311ETH      H 5616   3.038   3.741   4.162
 1311ETH     H1 5617   3.034   3.916   4.190
 1311ETH     H2 5618   2.895   3.816   4.238
 1311ETH     H3 5619   3.177   3.805   4.361
 1311ETH     H4 5620   3.035   3.879   4.437
 1311ETH     H5 5621   2.933   3.671   4.431
 1312ETH      C 5622   2.772   2.164   3.789
 1312ETH     C1 5623   2.892   2.259   3.770
 1312ETH      O 5624   2.855   2.393   3.806
 1312ETH      H 5625   2.750   2.149   3.895
 1312ETH     H1 5626   2.796   2.066   3.746
 1312ETH     H2 5627   2.683   2.203   3.739
 1312ETH     H3 5628   2.974   2.223   3.832
 1312ETH     H4 5629   2.926   2.256   3.666
 1312ETH     H5 5630   2.763   2.405   3.778
 1313ETH      C 5631   2.003   4.727   1.563
 1313ETH     C1 5632   2.004   4.576   1.586
 1313ETH      O 5633   2.038   4.551   1.722
 1313ETH      H 5634   1.923   4.774   1.622
 1313ETH     H1 5635   1.985   4.748   1.457
 1313ETH     H2 5636   2.099   4.773   1.590
 1313ETH     H3 5637   1.905   4.535   1.563
 1313ETH     H4 5638   2.077   4.530   1.519
 1313ETH     H5 5639   2.116   4.604   1.744
 1314ETH      C 5640   3.492   1.824   3.023
 1314ETH     C1 5641   3.350   1.785   2.983
 1314ETH      O 5642   3.292   1.897   2.918
 1314ETH      H 5643   3.550   1.849   2.933
 1314ETH     H1 5644   3.542   1.741   3.075
 1314ETH     H2 5645   3.490   1.912   3.089
 1314ETH     H3 5646   3.352   1.699   2.916
 1314ETH     H4 5647   3.291   1.759   3.072
 1314ETH     H5 5648   3.259   1.957   2.987
 1315ETH      C 5649   4.822   4.799   5.206
 1315ETH     C1 5650   4.676   4.825   5.170
 1315ETH      O 5651   4.625   4.720   5.088
 1315ETH      H 5652   4.833   4.703   5.258
 1315ETH     H1 5653   4.860   4.879   5.270
 1315ETH     H2 5654   4.884   4.796   5.115
 1315ETH     H3 5655   4.617   4.831   5.262
 1315ETH     H4 5656   4.669   4.922   5.118
 1315ETH     H5 5657   4.677   4.717   5.006
 1316ETH      C 5658   4.886   0.327   3.753
 1316ETH     C1 5659   4.748   0.308   3.817
 1316ETH      O 5660   4.762   0.236   3.939
 1316ETH      H 5661   4.952   0.383   3.821
 1316ETH     H1 5662   4.877   0.384   3.660
 1316ETH     H2 5663   4.933   0.231   3.731
 1316ETH     H3 5664   4.702   0.406   3.835
 1316ETH     H4 5665   4.683   0.254   3.747
 1316ETH     H5 5666   4.800   0.149   3.916
 1317ETH      C 5667   1.909   0.502   0.962
 1317ETH     C1 5668   1.961   0.632   0.901
 1317ETH      O 5669   1.939   0.630   0.760
 1317ETH      H 5670   1.801   0.493   0.948
 1317ETH     H1 5671   1.929   0.499   1.070
 1317ETH     H2 5672   1.957   0.414   0.917
 1317ETH     H3 5673   1.910   0.717   0.947
 1317ETH     H4 5674   2.069   0.642   0.922
 1317ETH     H5 5675   1.978   0.546   0.728
 1318ETH      C 5676   3.131   1.629   1.058
 1318ETH     C1 5677   3.123   1.549   0.927
 1318ETH      O 5678   3.010   1.594   0.853
 1318ETH      H 5679   3.145   1.736   1.037
 1318ETH     H1 5680   3.216   1.595   1.119
 1318ETH     H2 5681   3.039   1.616   1.115
 1318ETH     H3 5682   3.215   1.564   0.870
 1318ETH     H4 5683   3.113   1.443   0.951
 1318ETH     H5 5684   2.931   1.578   0.908
 1319ETH      C 5685   4.894   0.486   1.587
 1319ETH     C1 5686   4.747   0.498   1.546
 1319ETH      O 5687   4.666   0.428   1.641
 1319ETH      H 5688   4.910   0.528   1.687
 1319ETH     H1 5689   4.958   0.541   1.516
 1319ETH     H2 5690   4.926   0.381   1.587
 1319ETH     H3 5691   4.718   0.604   1.543
 1319ETH     H4 5692   4.733   0.457   1.445
 1319ETH     H5 5693   4.694   0.335   1.636
 1320ETH      C 5694   2.756   1.249   5.153
 1320ETH     C1 5695   2.790   1.398   5.137
 1320ETH      O 5696   2.676   1.478   5.169
 1320ETH      H 5697   2.730   1.225   5.257
 1320ETH     H1 5698   2.843   1.188   5.125
 1320ETH     H2 5699   2.672   1.221   5.088
 1320ETH     H3 5700   2.873   1.424   5.203
 1320ETH     H4 5701   2.821   1.418   5.034
 1320ETH     H5 5702   2.598   1.437   5.128
 1321ETH      C 5703   1.543   0.408   1.058
 1321ETH     C1 5704   1.467   0.288   1.116
 1321ETH      O 5705   1.354   0.260   1.034
 1321ETH      H 5706   1.580   0.386   0.958
 1321ETH     H1 5707   1.628   0.433   1.122
 1321ETH     H2 5708   1.478   0.496   1.053
 1321ETH     H3 5709   1.534   0.201   1.120
 1321ETH     H4 5710   1.435   0.311   1.218
 1321ETH     H5 5711   1.308   0.345   1.020
 1322ETH      C 5712   5.248   3.468   0.543
 1322ETH     C1 5713   5.181   3.347   0.477
 1322ETH      O 5714   5.111   3.273   0.576
 1322ETH      H 5715   5.173   3.532   0.591
 1322ETH     H1 5716   5.301   3.528   0.468
 1322ETH     H2 5717   5.321   3.435   0.618
 1322ETH     H3 5718   5.112   3.382   0.399
 1322ETH     H4 5719   5.258   3.285   0.429
 1322ETH     H5 5720   5.177   3.239   0.639
 1323ETH      C 5721   3.452   4.155   4.881
 1323ETH     C1 5722   3.411   4.270   4.974
 1323ETH      O 5723   3.381   4.386   4.897
 1323ETH      H 5724   3.370   4.131   4.812
 1323ETH     H1 5725   3.475   4.065   4.939
 1323ETH     H2 5726   3.541   4.183   4.822
 1323ETH     H3 5727   3.323   4.240   5.031
 1323ETH     H4 5728   3.493   4.290   5.044
 1323ETH     H5 5729   3.460   4.409   4.844
 1324ETH      C 5730   4.083   3.644   5.313
 1324ETH     C1 5731   4.219   3.661   5.381
 1324ETH      O 5732   4.319   3.623   5.287
 1324ETH      H 5733   4.079   3.701   5.220
 1324ETH     H1 5734   4.001   3.677   5.379
 1324ETH     H2 5735   4.067   3.538   5.289
 1324ETH     H3 5736   4.232   3.766   5.411
 1324ETH     H4 5737   4.224   3.599   5.471
 1324ETH     H5 5738   4.316   3.527   5.280
 1325ETH      C 5739   0.209   3.905   1.685
 1325ETH     C1 5740   0.346   3.848   1.726
 1325ETH      O 5741   0.419   3.810   1.611
 1325ETH      H 5742   0.222   3.992   1.619
 1325ETH     H1 5743   0.154   3.937   1.773
 1325ETH     H2 5744   0.150   3.830   1.632
 1325ETH     H3 5745   0.401   3.925   1.782
 1325ETH     H4 5746   0.331   3.762   1.793
 1325ETH     H5 5747   0.364   3.748   1.559
 1326ETH      C 5748   4.184   3.817   4.131
 1326ETH     C1 5749   4.036   3.822   4.172
 1326ETH      O 5750   3.964   3.904   4.080
 1326ETH      H 5751   4.195   3.773   4.032
 1326ETH     H1 5752   4.240   3.757   4.203
 1326ETH     H2 5753   4.226   3.918   4.131
 1326ETH     H3 5754   3.995   3.720   4.173
 1326ETH     H4 5755   4.028   3.863   4.274
 1326ETH     H5 5756   4.009   3.990   4.079
 1327ETH      C 5757   1.953   1.520   5.073
 1327ETH     C1 5758   1.962   1.379   5.133
 1327ETH      O 5759   2.017   1.384   5.264
 1327ETH      H 5760   1.895   1.586   5.139
 1327ETH     H1 5761   1.903   1.517   4.976
 1327ETH     H2 5762   2.053   1.564   5.058
 1327ETH     H3 5763   1.862   1.337   5.137
 1327ETH     H4 5764   2.024   1.316   5.067
 1327ETH     H5 5765   2.103   1.430   5.261
 1328ETH      C 5766   1.953   2.693   5.217
 1328ETH     C1 5767   2.074   2.740   5.299
 1328ETH      O 5768   2.059   2.878   5.329
 1328ETH      H 5769   1.860   2.709   5.274
 1328ETH     H1 5770   1.962   2.586   5.196
 1328ETH     H2 5771   1.946   2.748   5.123
 1328ETH     H3 5772   2.080   2.681   5.391
 1328ETH     H4 5773   2.166   2.723   5.242
 1328ETH     H5 5774   2.064   2.927   5.246
 1329ETH      C 5775   2.850   3.585   5.540
 1329ETH     C1 5776   2.940   3.462   5.550
 1329ETH      O 5777   2.907   3.374   5.443
 1329ETH      H 5778   2.866   3.636   5.444
 1329ETH     H1 5779   2.872   3.656   5.620
 1329ETH     H2 5780   2.745   3.555   5.547
 1329ETH     H3 5781   3.045   3.493   5.543
 1329ETH     H4 5782   2.925   3.413   5.647
 1329ETH     H5 5783   2.822   3.332   5.465
 1330ETH      C 5784   1.902   0.936   3.356
 1330ETH     C1 5785   1.853   0.795   3.389
 1330ETH      O 5786   1.716   0.785   3.351
 1330ETH      H 5787   1.891   0.953   3.249
 1330ETH     H1 5788   2.008   0.947   3.383
 1330ETH     H2 5789   1.845   1.012   3.410
 1330ETH     H3 5790   1.913   0.723   3.334
 1330ETH     H4 5791   1.864   0.776   3.496
 1330ETH     H5 5792   1.665   0.855   3.395
 1331ETH      C 5793   2.261   0.461   1.665
 1331ETH     C1 5794   2.199   0.563   1.571
 1331ETH      O 5795   2.152   0.673   1.647
 1331ETH      H 5796   2.345   0.505   1.720
 1331ETH     H1 5797   2.299   0.375   1.609
 1331ETH     H2 5798   2.187   0.426   1.737
 1331ETH     H3 5799   2.273   0.595   1.498
 1331ETH     H4 5800   2.115   0.515   1.518
 1331ETH     H5 5801   2.087   0.639   1.710
 1332ETH      C 5802   4.016   2.297   0.794
 1332ETH     C1 5803   3.919   2.289   0.913
 1332ETH      O 5804   3.792   2.241   0.868
 1332ETH      H 5805   4.032   2.198   0.749
 1332ETH     H1 5806   4.114   2.333   0.828
 1332ETH     H2 5807   3.980   2.366   0.717
 1332ETH     H3 5808   3.960   2.221   0.988
 1332ETH     H4 5809   3.908   2.388   0.958
 1332ETH     H5 5810   3.760   2.302   0.799
 1333ETH      C 5811   3.249   2.114   5.469
 1333ETH     C1 5812   3.250   1.967   5.505
 1333ETH      O 5813   3.230   1.891   5.385
 1333ETH      H 5814   3.328   2.134   5.395
 1333ETH     H1 5815   3.266   2.177   5.557
 1333ETH     H2 5816   3.151   2.139   5.426
 1333ETH     H3 5817   3.345   1.941   5.552
 1333ETH     H4 5818   3.169   1.949   5.577
 1333ETH     H5 5819   3.145   1.920   5.347
 1334ETH      C 5820   5.106   4.002   5.523
 1334ETH     C1 5821   5.070   4.148   5.550
 1334ETH      O 5822   5.127   4.230   5.448
 1334ETH      H 5823   5.066   3.970   5.427
 1334ETH     H1 5824   5.064   3.937   5.601
 1334ETH     H2 5825   5.215   3.988   5.522
 1334ETH     H3 5826   4.961   4.159   5.552
 1334ETH     H4 5827   5.108   4.178   5.649
 1334ETH     H5 5828   5.223   4.226   5.460
 1335ETH      C 5829   1.746   1.550   0.252
 1335ETH     C1 5830   1.751   1.471   0.384
 1335ETH      O 5831   1.634   1.497   0.460
 1335ETH      H 5832   1.662   1.516   0.190
 1335ETH     H1 5833   1.839   1.534   0.196
 1335ETH     H2 5834   1.735   1.657   0.272
 1335ETH     H3 5835   1.756   1.364   0.361
 1335ETH     H4 5836   1.840   1.499   0.440
 1335ETH     H5 5837   1.630   1.593   0.478
 1336ETH      C 5838   1.557   5.050   4.256
 1336ETH     C1 5839   1.503   5.002   4.121
 1336ETH      O 5840   1.397   5.087   4.079
 1336ETH      H 5841   1.594   5.153   4.247
 1336ETH     H1 5842   1.639   4.987   4.289
 1336ETH     H2 5843   1.478   5.048   4.332
 1336ETH     H3 5844   1.584   5.004   4.047
 1336ETH     H4 5845   1.468   4.898   4.129
 1336ETH     H5 5846   1.322   5.073   4.139
 1337ETH      C 5847   2.998   4.893   1.313
 1337ETH     C1 5848   3.080   4.784   1.381
 1337ETH      O 5849   3.131   4.840   1.501
 1337ETH      H 5850   2.918   4.925   1.381
 1337ETH     H1 5851   2.954   4.857   1.220
 1337ETH     H2 5852   3.062   4.980   1.292
 1337ETH     H3 5853   3.017   4.697   1.402
 1337ETH     H4 5854   3.161   4.751   1.315
 1337ETH     H5 5855   3.219   4.876   1.480
 1338ETH      C 5856   1.877   1.647   4.170
 1338ETH     C1 5857   1.874   1.799   4.185
 1338ETH      O 5858   1.945   1.856   4.076
 1338ETH      H 5859   1.831   1.617   4.075
 1338ETH     H1 5860   1.822   1.599   4.252
 1338ETH     H2 5861   1.980   1.610   4.172
 1338ETH     H3 5862   1.770   1.834   4.185
 1338ETH     H4 5863   1.920   1.828   4.280
 1338ETH     H5 5864   2.036   1.823   4.081
 1339ETH      C 5865   4.369   4.639   1.531
 1339ETH     C1 5866   4.472   4.741   1.481
 1339ETH      O 5867   4.495   4.838   1.582
 1339ETH      H 5868   4.407   4.587   1.620
 1339ETH     H1 5869   4.349   4.564   1.453
 1339ETH     H2 5870   4.274   4.688   1.557
 1339ETH     H3 5871   4.565   4.690   1.455
 1339ETH     H4 5872   4.433   4.790   1.390
 1339ETH     H5 5873   4.409   4.879   1.604
 1340ETH      C 5874   0.370   1.750   0.639
 1340ETH     C1 5875   0.222   1.775   0.608
 1340ETH      O 5876   0.150   1.653   0.625
 1340ETH      H 5877   0.382   1.712   0.741
 1340ETH     H1 5878   0.427   1.843   0.631
 1340ETH     H2 5879   0.413   1.677   0.570
 1340ETH     H3 5880   0.182   1.851   0.677
 1340ETH     H4 5881   0.211   1.813   0.506
 1340ETH     H5 5882   0.183   1.591   0.557
 1341ETH      C 5883   3.742   3.516   3.266
 1341ETH     C1 5884   3.827   3.635   3.222
 1341ETH      O 5885   3.817   3.742   3.315
 1341ETH      H 5886   3.778   3.476   3.362
 1341ETH     H1 5887   3.749   3.435   3.192
 1341ETH     H2 5888   3.637   3.544   3.276
 1341ETH     H3 5889   3.932   3.604   3.213
 1341ETH     H4 5890   3.793   3.669   3.123
 1341ETH     H5 5891   3.727   3.743   3.353
 1342ETH      C 5892   3.150   2.683   4.529
 1342ETH     C1 5893   3.139   2.545   4.464
 1342ETH      O 5894   3.268   2.485   4.462
 1342ETH      H 5895   3.178   2.676   4.634
 1342ETH     H1 5896   3.054   2.736   4.521
 1342ETH     H2 5897   3.228   2.741   4.478
 1342ETH     H3 5898   3.067   2.484   4.520
 1342ETH     H4 5899   3.103   2.558   4.362
 1342ETH     H5 5900   3.328   2.550   4.423
 1343ETH      C 5901   4.606   4.731   3.912
 1343ETH     C1 5902   4.591   4.600   3.990
 1343ETH      O 5903   4.713   4.571   4.057
 1343ETH      H 5904   4.628   4.814   3.980
 1343ETH     H1 5905   4.513   4.754   3.859
 1343ETH     H2 5906   4.687   4.725   3.838
 1343ETH     H3 5907   4.510   4.610   4.063
 1343ETH     H4 5908   4.566   4.518   3.921
 1343ETH     H5 5909   4.785   4.567   3.992
 1344ETH      C 5910   4.397   5.207   1.675
 1344ETH     C1 5911   4.468   5.333   1.727
 1344ETH      O 5912   4.589   5.296   1.793
 1344ETH      H 5913   4.461   5.154   1.603
 1344ETH     H1 5914   4.304   5.235   1.625
 1344ETH     H2 5915   4.373   5.139   1.758
 1344ETH     H3 5916   4.490   5.400   1.643
 1344ETH     H4 5917   4.402   5.386   1.797
 1344ETH     H5 5918   4.565   5.233   1.864
 1345ETH      C 5919   4.425   1.764   2.484
 1345ETH     C1 5920   4.330   1.653   2.436
 1345ETH      O 5921   4.195   1.685   2.471
 1345ETH      H 5922   4.399   1.860   2.436
 1345ETH     H1 5923   4.528   1.740   2.457
 1345ETH     H2 5924   4.419   1.777   2.593
 1345ETH     H3 5925   4.340   1.641   2.328
 1345ETH     H4 5926   4.360   1.558   2.483
 1345ETH     H5 5927   4.194   1.708   2.565
 1346ETH      C 5928   1.937   2.007   2.547
 1346ETH     C1 5929   1.953   2.100   2.426
 1346ETH      O 5930   2.092   2.112   2.396
 1346ETH      H 5931   1.975   1.907   2.525
 1346ETH     H1 5932   1.831   1.998   2.573
 1346ETH     H2 5933   1.991   2.048   2.633
 1346ETH     H3 5934   1.899   2.058   2.341
 1346ETH     H4 5935   1.910   2.198   2.448
 1346ETH     H5 5936   2.135   2.161   2.468
 1347ETH      C 5937   2.552   3.526   0.737
 1347ETH     C1 5938   2.619   3.392   0.768
 1347ETH      O 5939   2.550   3.326   0.874
 1347ETH      H 5940   2.452   3.511   0.695
 1347ETH     H1 5941   2.611   3.582   0.663
 1347ETH     H2 5942   2.543   3.588   0.827
 1347ETH     H3 5943   2.620   3.331   0.677
 1347ETH     H4 5944   2.724   3.409   0.798
 1347ETH     H5 5945   2.517   3.393   0.936
 1348ETH      C 5946   3.110   3.367   1.479
 1348ETH     C1 5947   3.038   3.490   1.535
 1348ETH      O 5948   3.134   3.577   1.594
 1348ETH      H 5949   3.188   3.398   1.408
 1348ETH     H1 5950   3.040   3.301   1.426
 1348ETH     H2 5951   3.159   3.310   1.559
 1348ETH     H3 5952   2.985   3.541   1.454
 1348ETH     H4 5953   2.964   3.459   1.609
 1348ETH     H5 5954   3.185   3.525   1.659
 1349ETH      C 5955   1.167   1.372   3.416
 1349ETH     C1 5956   1.060   1.340   3.521
 1349ETH      O 5957   1.070   1.202   3.556
 1349ETH      H 5958   1.267   1.352   3.456
 1349ETH     H1 5959   1.162   1.478   3.388
 1349ETH     H2 5960   1.153   1.312   3.326
 1349ETH     H3 5961   1.076   1.403   3.610
 1349ETH     H4 5962   0.961   1.362   3.481
 1349ETH     H5 5963   1.043   1.151   3.478
 1350ETH      C 5964   2.879   0.784   1.514
 1350ETH     C1 5965   2.899   0.785   1.667
 1350ETH      O 5966   3.009   0.701   1.705
 1350ETH      H 5967   2.965   0.826   1.460
 1350ETH     H1 5968   2.792   0.845   1.488
 1350ETH     H2 5969   2.863   0.682   1.477
 1350ETH     H3 5970   2.916   0.888   1.702
 1350ETH     H4 5971   2.807   0.749   1.714
 1350ETH     H5 5972   3.011   0.626   1.643
 1351ETH      C 5973   1.485   2.912   5.222
 1351ETH     C1 5974   1.353   2.974   5.271
 1351ETH      O 5975   1.292   2.887   5.366
 1351ETH      H 5976   1.554   2.895   5.305
 1351ETH     H1 5977   1.534   2.978   5.150
 1351ETH     H2 5978   1.466   2.816   5.173
 1351ETH     H3 5979   1.373   3.071   5.318
 1351ETH     H4 5980   1.286   2.991   5.186
 1351ETH     H5 5981   1.279   2.801   5.322
 1352ETH      C 5982   4.019   0.900   2.975
 1352ETH     C1 5983   4.002   1.014   2.874
 1352ETH      O 5984   3.867   1.061   2.877
 1352ETH      H 5985   3.993   0.935   3.076
 1352ETH     H1 5986   4.123   0.866   2.976
 1352ETH     H2 5987   3.955   0.815   2.951
 1352ETH     H3 5988   4.071   1.096   2.898
 1352ETH     H4 5989   4.027   0.977   2.773
 1352ETH     H5 5990   3.810   0.982   2.871
 1353ETH      C 5991   5.561   1.919   0.952
 1353ETH     C1 5992   5.561   1.781   0.885
 1353ETH      O 5993   5.559   1.681   0.987
 1353ETH      H 5994   5.473   1.931   1.015
 1353ETH     H1 5995   5.560   1.998   0.875
 1353ETH     H2 5996   5.651   1.933   1.013
 1353ETH     H3 5997   5.473   1.771   0.822
 1353ETH     H4 5998   5.650   1.770   0.822
 1353ETH     H5 5999   5.644   1.687   1.035
 1354ETH      C 6000   1.623   2.279   2.649
 1354ETH     C1 6001   1.540   2.154   2.618
 1354ETH      O 6002   1.527   2.138   2.477
 1354ETH      H 6003   1.725   2.268   2.608
 1354ETH     H1 6004   1.631   2.293   2.757
 1354ETH     H2 6005   1.577   2.369   2.606
 1354ETH     H3 6006   1.589   2.065   2.661
 1354ETH     H4 6007   1.441   2.164   2.665
 1354ETH     H5 6008   1.491   2.221   2.441
 1355ETH      C 6009   3.273   2.149   4.806
 1355ETH     C1 6010   3.311   2.126   4.660
 1355ETH      O 6011   3.202   2.165   4.576
 1355ETH      H 6012   3.261   2.256   4.827
 1355ETH     H1 6013   3.352   2.110   4.872
 1355ETH     H2 6014   3.180   2.097   4.831
 1355ETH     H3 6015   3.401   2.184   4.636
 1355ETH     H4 6016   3.333   2.020   4.646
 1355ETH     H5 6017   3.122   2.125   4.616
 1356ETH      C 6018   1.619   3.390   1.900
 1356ETH     C1 6019   1.687   3.264   1.845
 1356ETH      O 6020   1.744   3.187   1.951
 1356ETH      H 6021   1.543   3.365   1.974
 1356ETH     H1 6022   1.571   3.445   1.819
 1356ETH     H2 6023   1.693   3.457   1.947
 1356ETH     H3 6024   1.612   3.203   1.793
 1356ETH     H4 6025   1.765   3.293   1.773
 1356ETH     H5 6026   1.787   3.246   2.015
 1357ETH      C 6027   2.581   5.224   4.941
 1357ETH     C1 6028   2.514   5.345   4.874
 1357ETH      O 6029   2.595   5.461   4.891
 1357ETH      H 6030   2.678   5.202   4.894
 1357ETH     H1 6031   2.518   5.135   4.930
 1357ETH     H2 6032   2.597   5.241   5.048
 1357ETH     H3 6033   2.499   5.324   4.768
 1357ETH     H4 6034   2.416   5.361   4.920
 1357ETH     H5 6035   2.621   5.465   4.985
 1358ETH      C 6036   2.172   1.365   4.235
 1358ETH     C1 6037   2.284   1.261   4.231
 1358ETH      O 6038   2.310   1.226   4.095
 1358ETH      H 6039   2.204   1.461   4.192
 1358ETH     H1 6040   2.139   1.382   4.339
 1358ETH     H2 6041   2.087   1.328   4.177
 1358ETH     H3 6042   2.374   1.301   4.279
 1358ETH     H4 6043   2.252   1.173   4.287
 1358ETH     H5 6044   2.224   1.202   4.056
 1359ETH      C 6045   0.837   5.450   2.014
 1359ETH     C1 6046   0.896   5.502   1.881
 1359ETH      O 6047   1.013   5.428   1.847
 1359ETH      H 6048   0.804   5.346   2.004
 1359ETH     H1 6049   0.750   5.510   2.043
 1359ETH     H2 6050   0.911   5.455   2.095
 1359ETH     H3 6051   0.820   5.494   1.803
 1359ETH     H4 6052   0.921   5.608   1.893
 1359ETH     H5 6053   1.063   5.413   1.929
 1360ETH      C 6054   2.653   0.802   0.239
 1360ETH     C1 6055   2.582   0.895   0.339
 1360ETH      O 6056   2.677   0.983   0.397
 1360ETH      H 6057   2.699   0.861   0.159
 1360ETH     H1 6058   2.581   0.733   0.193
 1360ETH     H2 6059   2.730   0.743   0.289
 1360ETH     H3 6060   2.504   0.952   0.286
 1360ETH     H4 6061   2.533   0.835   0.417
 1360ETH     H5 6062   2.746   0.930   0.440
 1361ETH      C 6063   0.383   2.424   3.698
 1361ETH     C1 6064   0.254   2.397   3.620
 1361ETH      O 6065   0.149   2.372   3.713
 1361ETH      H 6066   0.371   2.511   3.765
 1361ETH     H1 6067   0.465   2.447   3.628
 1361ETH     H2 6068   0.412   2.337   3.758
 1361ETH     H3 6069   0.230   2.485   3.558
 1361ETH     H4 6070   0.268   2.312   3.553
 1361ETH     H5 6071   0.175   2.294   3.766
 1362ETH      C 6072   2.190   5.262   1.262
 1362ETH     C1 6073   2.163   5.343   1.135
 1362ETH      O 6074   2.229   5.279   1.026
 1362ETH      H 6075   2.144   5.163   1.254
 1362ETH     H1 6076   2.147   5.314   1.348
 1362ETH     H2 6077   2.298   5.250   1.277
 1362ETH     H3 6078   2.055   5.349   1.117
 1362ETH     H4 6079   2.202   5.445   1.148
 1362ETH     H5 6080   2.323   5.273   1.053
 1363ETH      C 6081   0.394   2.949   4.224
 1363ETH     C1 6082   0.400   2.812   4.293
 1363ETH      O 6083   0.342   2.821   4.423
 1363ETH      H 6084   0.290   2.982   4.215
 1363ETH     H1 6085   0.437   2.944   4.124
 1363ETH     H2 6086   0.449   3.024   4.282
 1363ETH     H3 6087   0.345   2.739   4.232
 1363ETH     H4 6088   0.504   2.778   4.299
 1363ETH     H5 6089   0.392   2.886   4.474
 1364ETH      C 6090   1.016   1.928   1.322
 1364ETH     C1 6091   1.093   1.875   1.200
 1364ETH      O 6092   1.232   1.880   1.228
 1364ETH      H 6093   1.039   1.867   1.410
 1364ETH     H1 6094   0.908   1.924   1.304
 1364ETH     H2 6095   1.045   2.032   1.343
 1364ETH     H3 6096   1.061   1.773   1.179
 1364ETH     H4 6097   1.069   1.936   1.112
 1364ETH     H5 6098   1.255   1.972   1.251
 1365ETH      C 6099   1.700   1.293   2.170
 1365ETH     C1 6100   1.634   1.237   2.297
 1365ETH      O 6101   1.528   1.322   2.340
 1365ETH      H 6102   1.629   1.296   2.087
 1365ETH     H1 6103   1.785   1.231   2.139
 1365ETH     H2 6104   1.739   1.395   2.188
 1365ETH     H3 6105   1.593   1.137   2.276
 1365ETH     H4 6106   1.709   1.227   2.376
 1365ETH     H5 6107   1.562   1.414   2.344
 1366ETH      C 6108   1.593   4.934   1.519
 1366ETH     C1 6109   1.605   4.796   1.455
 1366ETH      O 6110   1.739   4.775   1.413
 1366ETH      H 6111   1.654   4.939   1.610
 1366ETH     H1 6112   1.488   4.952   1.546
 1366ETH     H2 6113   1.625   5.011   1.449
 1366ETH     H3 6114   1.576   4.719   1.528
 1366ETH     H4 6115   1.538   4.790   1.369
 1366ETH     H5 6116   1.766   4.853   1.363
 1367ETH      C 6117   0.895   3.224   4.558
 1367ETH     C1 6118   0.966   3.296   4.673
 1367ETH      O 6119   1.033   3.411   4.624
 1367ETH      H 6120   0.818   3.288   4.514
 1367ETH     H1 6121   0.847   3.133   4.595
 1367ETH     H2 6122   0.965   3.195   4.479
 1367ETH     H3 6123   0.892   3.323   4.750
 1367ETH     H4 6124   1.038   3.227   4.719
 1367ETH     H5 6125   1.068   3.388   4.536
 1368ETH      C 6126   0.630   0.826   4.735
 1368ETH     C1 6127   0.577   0.698   4.802
 1368ETH      O 6128   0.437   0.711   4.826
 1368ETH      H 6129   0.578   0.845   4.641
 1368ETH     H1 6130   0.737   0.816   4.714
 1368ETH     H2 6131   0.616   0.912   4.801
 1368ETH     H3 6132   0.595   0.613   4.735
 1368ETH     H4 6133   0.631   0.680   4.895
 1368ETH     H5 6134   0.422   0.791   4.879
 1369ETH      C 6135   5.212   4.444   4.690
 1369ETH     C1 6136   5.239   4.571   4.607
 1369ETH      O 6137   5.299   4.670   4.690
 1369ETH      H 6138   5.305   4.405   4.732
 1369ETH     H1 6139   5.167   4.367   4.626
 1369ETH     H2 6140   5.143   4.466   4.772
 1369ETH     H3 6141   5.307   4.546   4.524
 1369ETH     H4 6142   5.145   4.608   4.564
 1369ETH     H5 6143   5.237   4.690   4.763
 1370ETH      C 6144   2.928   0.939   0.832
 1370ETH     C1 6145   2.797   0.975   0.904
 1370ETH      O 6146   2.718   1.058   0.819
 1370ETH      H 6147   2.907   0.886   0.739
 1370ETH     H1 6148   2.989   0.875   0.896
 1370ETH     H2 6149   2.985   1.030   0.809
 1370ETH     H3 6150   2.742   0.884   0.928
 1370ETH     H4 6151   2.819   1.028   0.997
 1370ETH     H5 6152   2.770   1.137   0.796
 1371ETH      C 6153   1.831   3.590   3.405
 1371ETH     C1 6154   1.969   3.533   3.435
 1371ETH      O 6155   1.976   3.511   3.574
 1371ETH      H 6156   1.753   3.518   3.431
 1371ETH     H1 6157   1.824   3.616   3.299
 1371ETH     H2 6158   1.814   3.681   3.464
 1371ETH     H3 6159   1.984   3.440   3.379
 1371ETH     H4 6160   2.046   3.605   3.404
 1371ETH     H5 6161   1.978   3.600   3.614
 1372ETH      C 6162   5.476   3.974   2.377
 1372ETH     C1 6163   5.344   3.895   2.370
 1372ETH      O 6164   5.236   3.986   2.349
 1372ETH      H 6165   5.494   4.028   2.283
 1372ETH     H1 6166   5.560   3.907   2.397
 1372ETH     H2 6167   5.472   4.047   2.459
 1372ETH     H3 6168   5.350   3.822   2.288
 1372ETH     H4 6169   5.330   3.840   2.463
 1372ETH     H5 6170   5.242   4.052   2.421
 1373ETH      C 6171   1.997   2.715   1.882
 1373ETH     C1 6172   1.974   2.812   1.766
 1373ETH      O 6173   1.835   2.840   1.756
 1373ETH      H 6174   1.963   2.758   1.977
 1373ETH     H1 6175   2.104   2.692   1.891
 1373ETH     H2 6176   1.943   2.620   1.865
 1373ETH     H3 6177   2.030   2.905   1.785
 1373ETH     H4 6178   2.011   2.768   1.673
 1373ETH     H5 6179   1.788   2.755   1.746
 1374ETH      C 6180   3.342   2.005   3.678
 1374ETH     C1 6181   3.251   2.035   3.797
 1374ETH      O 6182   3.199   2.166   3.779
 1374ETH      H 6183   3.284   2.006   3.585
 1374ETH     H1 6184   3.387   1.906   3.692
 1374ETH     H2 6185   3.423   2.079   3.671
 1374ETH     H3 6186   3.171   1.961   3.802
 1374ETH     H4 6187   3.309   2.029   3.890
 1374ETH     H5 6188   3.273   2.228   3.786
 1375ETH      C 6189   4.108   2.964   3.440
 1375ETH     C1 6190   4.055   2.991   3.298
 1375ETH      O 6191   4.160   2.968   3.204
 1375ETH      H 6192   4.132   2.858   3.453
 1375ETH     H1 6193   4.032   2.991   3.515
 1375ETH     H2 6194   4.198   3.024   3.460
 1375ETH     H3 6195   3.969   2.926   3.278
 1375ETH     H4 6196   4.022   3.095   3.292
 1375ETH     H5 6197   4.241   3.005   3.244
 1376ETH      C 6198   0.829   4.565   5.524
 1376ETH     C1 6199   0.679   4.535   5.519
 1376ETH      O 6200   0.605   4.656   5.533
 1376ETH      H 6201   0.858   4.631   5.442
 1376ETH     H1 6202   0.886   4.472   5.514
 1376ETH     H2 6203   0.857   4.611   5.619
 1376ETH     H3 6204   0.654   4.486   5.424
 1376ETH     H4 6205   0.653   4.465   5.600
 1376ETH     H5 6206   0.637   4.701   5.613
 1377ETH      C 6207   1.386   1.812   2.572
 1377ETH     C1 6208   1.384   1.789   2.421
 1377ETH      O 6209   1.481   1.689   2.391
 1377ETH      H 6210   1.360   1.719   2.624
 1377ETH     H1 6211   1.314   1.890   2.601
 1377ETH     H2 6212   1.486   1.843   2.605
 1377ETH     H3 6213   1.284   1.758   2.389
 1377ETH     H4 6214   1.408   1.883   2.369
 1377ETH     H5 6215   1.568   1.725   2.416
 1378ETH      C 6216   1.160   0.548   5.523
 1378ETH     C1 6217   1.141   0.496   5.380
 1378ETH      O 6218   1.012   0.434   5.369
 1378ETH      H 6219   1.084   0.623   5.547
 1378ETH     H1 6220   1.259   0.594   5.533
 1378ETH     H2 6221   1.153   0.466   5.596
 1378ETH     H3 6222   1.149   0.579   5.309
 1378ETH     H4 6223   1.219   0.423   5.356
 1378ETH     H5 6224   1.006   0.367   5.438
 1379ETH      C 6225   2.786   4.179   2.928
 1379ETH     C1 6226   2.870   4.194   3.055
 1379ETH      O 6227   2.974   4.289   3.031
 1379ETH      H 6228   2.747   4.276   2.897
 1379ETH     H1 6229   2.702   4.111   2.947
 1379ETH     H2 6230   2.846   4.137   2.846
 1379ETH     H3 6231   2.806   4.230   3.136
 1379ETH     H4 6232   2.911   4.097   3.085
 1379ETH     H5 6233   3.036   4.253   2.965
 1380ETH      C 6234   4.901   4.437   1.752
 1380ETH     C1 6235   4.755   4.392   1.730
 1380ETH      O 6236   4.671   4.507   1.719
 1380ETH      H 6237   4.936   4.497   1.667
 1380ETH     H1 6238   4.966   4.349   1.761
 1380ETH     H2 6239   4.911   4.496   1.843
 1380ETH     H3 6240   4.749   4.332   1.638
 1380ETH     H4 6241   4.723   4.329   1.814
 1380ETH     H5 6242   4.684   4.561   1.799
 1381ETH      C 6243   1.624   4.372   1.347
 1381ETH     C1 6244   1.565   4.506   1.301
 1381ETH      O 6245   1.455   4.541   1.385
 1381ETH      H 6246   1.662   4.381   1.449
 1381ETH     H1 6247   1.707   4.343   1.282
 1381ETH     H2 6248   1.547   4.294   1.344
 1381ETH     H3 6249   1.644   4.581   1.305
 1381ETH     H4 6250   1.531   4.500   1.197
 1381ETH     H5 6251   1.394   4.465   1.387
 1382ETH      C 6252   0.548   4.215   4.905
 1382ETH     C1 6253   0.426   4.166   4.984
 1382ETH      O 6254   0.348   4.080   4.902
 1382ETH      H 6255   0.608   4.130   4.870
 1382ETH     H1 6256   0.612   4.278   4.968
 1382ETH     H2 6257   0.518   4.273   4.817
 1382ETH     H3 6258   0.460   4.113   5.073
 1382ETH     H4 6259   0.367   4.253   5.017
 1382ETH     H5 6260   0.319   4.130   4.824
 1383ETH      C 6261   1.919   3.956   5.029
 1383ETH     C1 6262   2.029   3.963   5.135
 1383ETH      O 6263   2.061   4.098   5.167
 1383ETH      H 6264   1.826   4.002   5.066
 1383ETH     H1 6265   1.899   3.851   5.007
 1383ETH     H2 6266   1.949   4.006   4.937
 1383ETH     H3 6267   1.996   3.910   5.225
 1383ETH     H4 6268   2.118   3.912   5.096
 1383ETH     H5 6269   2.062   4.149   5.084
 1384ETH      C 6270   1.793   5.136   0.831
 1384ETH     C1 6271   1.932   5.096   0.784
 1384ETH      O 6272   2.029   5.146   0.875
 1384ETH      H 6273   1.775   5.100   0.933
 1384ETH     H1 6274   1.717   5.092   0.766
 1384ETH     H2 6275   1.780   5.245   0.830
 1384ETH     H3 6276   1.940   4.986   0.782
 1384ETH     H4 6277   1.951   5.133   0.683
 1384ETH     H5 6278   2.025   5.243   0.873
 1385ETH      C 6279   3.693   1.870   5.306
 1385ETH     C1 6280   3.646   1.870   5.159
 1385ETH      O 6281   3.531   1.787   5.147
 1385ETH      H 6282   3.615   1.910   5.371
 1385ETH     H1 6283   3.782   1.934   5.316
 1385ETH     H2 6284   3.719   1.769   5.339
 1385ETH     H3 6285   3.623   1.973   5.129
 1385ETH     H4 6286   3.727   1.833   5.095
 1385ETH     H5 6287   3.554   1.699   5.181
 1386ETH      C 6288   2.042   2.308   5.578
 1386ETH     C1 6289   1.935   2.199   5.560
 1386ETH      O 6290   1.815   2.256   5.508
 1386ETH      H 6291   2.069   2.353   5.482
 1386ETH     H1 6292   2.132   2.264   5.622
 1386ETH     H2 6293   2.007   2.387   5.646
 1386ETH     H3 6294   1.972   2.123   5.491
 1386ETH     H4 6295   1.914   2.152   5.656
 1386ETH     H5 6296   1.798   2.339   5.557
 1387ETH      C 6297   2.982   4.920   1.882
 1387ETH     C1 6298   2.849   4.921   1.960
 1387ETH      O 6299   2.801   4.788   1.977
 1387ETH      H 6300   3.059   4.866   1.938
 1387ETH     H1 6301   3.017   5.023   1.867
 1387ETH     H2 6302   2.970   4.872   1.784
 1387ETH     H3 6303   2.867   4.968   2.057
 1387ETH     H4 6304   2.775   4.982   1.907
 1387ETH     H5 6305   2.811   4.740   1.894
 1388ETH      C 6306   2.558   2.087   1.066
 1388ETH     C1 6307   2.418   2.092   1.004
 1388ETH      O 6308   2.326   2.028   1.092
 1388ETH      H 6309   2.559   2.136   1.164
 1388ETH     H1 6310   2.630   2.138   1.001
 1388ETH     H2 6311   2.591   1.983   1.079
 1388ETH     H3 6312   2.388   2.196   0.989
 1388ETH     H4 6313   2.418   2.041   0.907
 1388ETH     H5 6314   2.358   1.938   1.110
 1389ETH      C 6315   3.428   3.517   3.838
 1389ETH     C1 6316   3.330   3.636   3.833
 1389ETH      O 6317   3.203   3.593   3.881
 1389ETH      H 6318   3.436   3.479   3.940
 1389ETH     H1 6319   3.527   3.549   3.805
 1389ETH     H2 6320   3.394   3.436   3.772
 1389ETH     H3 6321   3.369   3.717   3.896
 1389ETH     H4 6322   3.323   3.673   3.730
 1389ETH     H5 6323   3.172   3.522   3.822
 1390ETH      C 6324   3.537   4.581   5.178
 1390ETH     C1 6325   3.555   4.703   5.087
 1390ETH      O 6326   3.646   4.669   4.983
 1390ETH      H 6327   3.499   4.497   5.118
 1390ETH     H1 6328   3.464   4.603   5.257
 1390ETH     H2 6329   3.632   4.552   5.223
 1390ETH     H3 6330   3.458   4.731   5.044
 1390ETH     H4 6331   3.591   4.788   5.146
 1390ETH     H5 6332   3.734   4.653   5.020
 1391ETH      C 6333   0.441   4.343   0.210
 1391ETH     C1 6334   0.400   4.437   0.324
 1391ETH      O 6335   0.517   4.476   0.394
 1391ETH      H 6336   0.512   4.394   0.143
 1391ETH     H1 6337   0.354   4.312   0.152
 1391ETH     H2 6338   0.491   4.254   0.251
 1391ETH     H3 6339   0.349   4.525   0.283
 1391ETH     H4 6340   0.330   4.385   0.390
 1391ETH     H5 6341   0.546   4.399   0.446
 1392ETH      C 6342   2.750   2.337   5.118
 1392ETH     C1 6343   2.746   2.472   5.190
 1392ETH      O 6344   2.745   2.578   5.094
 1392ETH      H 6345   2.661   2.324   5.055
 1392ETH     H1 6346   2.754   2.255   5.191
 1392ETH     H2 6347   2.838   2.328   5.052
 1392ETH     H3 6348   2.656   2.477   5.253
 1392ETH     H4 6349   2.834   2.482   5.256
 1392ETH     H5 6350   2.830   2.573   5.047
 1393ETH      C 6351   1.164   1.307   5.519
 1393ETH     C1 6352   1.158   1.161   5.472
 1393ETH      O 6353   1.229   1.078   5.565
 1393ETH      H 6354   1.119   1.317   5.619
 1393ETH     H1 6355   1.109   1.371   5.450
 1393ETH     H2 6356   1.267   1.342   5.524
 1393ETH     H3 6357   1.054   1.128   5.466
 1393ETH     H4 6358   1.203   1.152   5.372
 1393ETH     H5 6359   1.321   1.108   5.568
 1394ETH      C 6360   1.353   3.780   1.164
 1394ETH     C1 6361   1.210   3.784   1.110
 1394ETH      O 6362   1.213   3.750   0.972
 1394ETH      H 6363   1.395   3.680   1.151
 1394ETH     H1 6364   1.355   3.803   1.272
 1394ETH     H2 6365   1.417   3.852   1.111
 1394ETH     H3 6366   1.149   3.711   1.165
 1394ETH     H4 6367   1.167   3.884   1.126
 1394ETH     H5 6368   1.247   3.827   0.923
 1395ETH      C 6369   4.672   3.647   2.181
 1395ETH     C1 6370   4.673   3.502   2.227
 1395ETH      O 6371   4.780   3.493   2.320
 1395ETH      H 6372   4.648   3.712   2.266
 1395ETH     H1 6373   4.597   3.663   2.102
 1395ETH     H2 6374   4.771   3.674   2.142
 1395ETH     H3 6375   4.576   3.475   2.271
 1395ETH     H4 6376   4.690   3.435   2.141
 1395ETH     H5 6377   4.858   3.463   2.271
 1396ETH      C 6378   3.061   1.048   3.012
 1396ETH     C1 6379   2.943   1.053   2.915
 1396ETH      O 6380   2.903   1.188   2.900
 1396ETH      H 6381   3.147   1.103   2.972
 1396ETH     H1 6382   3.094   0.945   3.030
 1396ETH     H2 6383   3.034   1.091   3.109
 1396ETH     H3 6384   2.973   1.011   2.818
 1396ETH     H4 6385   2.861   0.992   2.954
 1396ETH     H5 6386   2.876   1.219   2.988
 1397ETH      C 6387   1.493   4.453   1.724
 1397ETH     C1 6388   1.569   4.414   1.851
 1397ETH      O 6389   1.627   4.531   1.908
 1397ETH      H 6390   1.416   4.527   1.747
 1397ETH     H1 6391   1.444   4.365   1.680
 1397ETH     H2 6392   1.561   4.495   1.650
 1397ETH     H3 6393   1.499   4.369   1.923
 1397ETH     H4 6394   1.646   4.340   1.828
 1397ETH     H5 6395   1.699   4.561   1.850
 1398ETH      C 6396   3.907   4.293   4.537
 1398ETH     C1 6397   4.055   4.255   4.548
 1398ETH      O 6398   4.085   4.159   4.447
 1398ETH      H 6399   3.887   4.336   4.439
 1398ETH     H1 6400   3.881   4.368   4.613
 1398ETH     H2 6401   3.843   4.205   4.551
 1398ETH     H3 6402   4.117   4.345   4.536
 1398ETH     H4 6403   4.075   4.213   4.648
 1398ETH     H5 6404   4.034   4.079   4.468
 1399ETH      C 6405   1.108   2.866   2.772
 1399ETH     C1 6406   0.963   2.830   2.740
 1399ETH      O 6407   0.924   2.716   2.816
 1399ETH      H 6408   1.120   2.886   2.879
 1399ETH     H1 6409   1.139   2.955   2.717
 1399ETH     H2 6410   1.176   2.784   2.745
 1399ETH     H3 6411   0.898   2.915   2.765
 1399ETH     H4 6412   0.952   2.811   2.632
 1399ETH     H5 6413   0.987   2.644   2.796
 1400ETH      C 6414   1.156   2.220   2.688
 1400ETH     C1 6415   1.231   2.321   2.775
 1400ETH      O 6416   1.145   2.432   2.800
 1400ETH      H 6417   1.066   2.184   2.739
 1400ETH     H1 6418   1.219   2.132   2.667
 1400ETH     H2 6419   1.127   2.264   2.592
 1400ETH     H3 6420   1.261   2.274   2.869
 1400ETH     H4 6421   1.322   2.355   2.723
 1400ETH     H5 6422   1.122   2.470   2.714
 1401ETH      C 6423   1.344   3.420   2.931
 1401ETH     C1 6424   1.290   3.558   2.970
 1401ETH      O 6425   1.332   3.653   2.872
 1401ETH      H 6426   1.305   3.390   2.834
 1401ETH     H1 6427   1.313   3.345   3.005
 1401ETH     H2 6428   1.454   3.421   2.926
 1401ETH     H3 6429   1.180   3.555   2.976
 1401ETH     H4 6430   1.328   3.586   3.069
 1401ETH     H5 6431   1.429   3.655   2.875
 1402ETH      C 6432   3.279   1.412   1.937
 1402ETH     C1 6433   3.227   1.297   2.024
 1402ETH      O 6434   3.085   1.298   2.025
 1402ETH      H 6435   3.241   1.403   1.834
 1402ETH     H1 6436   3.388   1.411   1.933
 1402ETH     H2 6437   3.247   1.509   1.977
 1402ETH     H3 6438   3.263   1.202   1.984
 1402ETH     H4 6439   3.266   1.308   2.126
 1402ETH     H5 6440   3.055   1.383   2.062
 1403ETH      C 6441   2.195   4.397   5.371
 1403ETH     C1 6442   2.193   4.460   5.511
 1403ETH      O 6443   2.161   4.599   5.500
 1403ETH      H 6444   2.098   4.408   5.321
 1403ETH     H1 6445   2.218   4.290   5.378
 1403ETH     H2 6446   2.272   4.444   5.308
 1403ETH     H3 6447   2.118   4.409   5.572
 1403ETH     H4 6448   2.290   4.446   5.559
 1403ETH     H5 6449   2.230   4.640   5.446
 1404ETH      C 6450   1.413   1.321   2.829
 1404ETH     C1 6451   1.531   1.414   2.797
 1404ETH      O 6452   1.623   1.416   2.906
 1404ETH      H 6453   1.448   1.218   2.844
 1404ETH     H1 6454   1.342   1.320   2.745
 1404ETH     H2 6455   1.359   1.353   2.918
 1404ETH     H3 6456   1.581   1.380   2.706
 1404ETH     H4 6457   1.493   1.515   2.779
 1404ETH     H5 6458   1.572   1.434   2.987
 1405ETH      C 6459   2.132   3.302   0.247
 1405ETH     C1 6460   2.156   3.428   0.333
 1405ETH      O 6461   2.103   3.542   0.265
 1405ETH      H 6462   2.025   3.286   0.231
 1405ETH     H1 6463   2.173   3.214   0.298
 1405ETH     H2 6464   2.181   3.312   0.149
 1405ETH     H3 6465   2.107   3.415   0.430
 1405ETH     H4 6466   2.263   3.440   0.350
 1405ETH     H5 6467   2.145   3.546   0.177
 1406ETH      C 6468   1.544   3.176   3.173
 1406ETH     C1 6469   1.658   3.090   3.116
 1406ETH      O 6470   1.779   3.165   3.113
 1406ETH      H 6471   1.568   3.211   3.274
 1406ETH     H1 6472   1.450   3.119   3.178
 1406ETH     H2 6473   1.526   3.263   3.109
 1406ETH     H3 6474   1.670   3.001   3.178
 1406ETH     H4 6475   1.631   3.058   3.014
 1406ETH     H5 6476   1.760   3.250   3.070
 1407ETH      C 6477   0.765   3.289   0.825
 1407ETH     C1 6478   0.731   3.359   0.692
 1407ETH      O 6479   0.697   3.260   0.595
 1407ETH      H 6480   0.679   3.233   0.862
 1407ETH     H1 6481   0.795   3.363   0.900
 1407ETH     H2 6482   0.848   3.219   0.812
 1407ETH     H3 6483   0.648   3.428   0.707
 1407ETH     H4 6484   0.818   3.416   0.658
 1407ETH     H5 6485   0.775   3.203   0.584
 1408ETH      C 6486   3.482   1.091   5.212
 1408ETH     C1 6487   3.622   1.083   5.275
 1408ETH      O 6488   3.717   1.050   5.175
 1408ETH      H 6489   3.481   1.166   5.132
 1408ETH     H1 6490   3.408   1.121   5.287
 1408ETH     H2 6491   3.453   0.994   5.171
 1408ETH     H3 6492   3.647   1.180   5.319
 1408ETH     H4 6493   3.622   1.008   5.355
 1408ETH     H5 6494   3.700   0.960   5.142
 1409ETH      C 6495   1.014   1.493   1.491
 1409ETH     C1 6496   0.944   1.367   1.544
 1409ETH      O 6497   0.970   1.351   1.683
 1409ETH      H 6498   0.977   1.582   1.543
 1409ETH     H1 6499   0.995   1.506   1.384
 1409ETH     H2 6500   1.123   1.487   1.506
 1409ETH     H3 6501   0.836   1.375   1.526
 1409ETH     H4 6502   0.981   1.280   1.488
 1409ETH     H5 6503   1.066   1.350   1.696
 1410ETH      C 6504   4.550   2.744   4.327
 1410ETH     C1 6505   4.491   2.878   4.281
 1410ETH      O 6506   4.426   2.860   4.155
 1410ETH      H 6507   4.472   2.669   4.340
 1410ETH     H1 6508   4.603   2.756   4.422
 1410ETH     H2 6509   4.622   2.706   4.253
 1410ETH     H3 6510   4.420   2.914   4.357
 1410ETH     H4 6511   4.571   2.952   4.272
 1410ETH     H5 6512   4.496   2.831   4.094
 1411ETH      C 6513   2.562   4.935   3.976
 1411ETH     C1 6514   2.689   4.860   4.018
 1411ETH      O 6515   2.716   4.757   3.924
 1411ETH      H 6516   2.575   4.977   3.875
 1411ETH     H1 6517   2.542   5.017   4.045
 1411ETH     H2 6518   2.476   4.868   3.975
 1411ETH     H3 6519   2.773   4.930   4.022
 1411ETH     H4 6520   2.675   4.818   4.119
 1411ETH     H5 6521   2.649   4.687   3.932
 1412ETH      C 6522   3.829   2.337   1.294
 1412ETH     C1 6523   3.701   2.347   1.210
 1412ETH      O 6524   3.665   2.218   1.160
 1412ETH      H 6525   3.814   2.269   1.379
 1412ETH     H1 6526   3.857   2.435   1.333
 1412ETH     H2 6527   3.913   2.299   1.234
 1412ETH     H3 6528   3.620   2.387   1.273
 1412ETH     H4 6529   3.717   2.417   1.127
 1412ETH     H5 6530   3.733   2.192   1.095
 1413ETH      C 6531   4.269   2.904   5.540
 1413ETH     C1 6532   4.219   3.041   5.490
 1413ETH      O 6533   4.237   3.052   5.349
 1413ETH      H 6534   4.216   2.822   5.491
 1413ETH     H1 6535   4.254   2.896   5.648
 1413ETH     H2 6536   4.377   2.893   5.520
 1413ETH     H3 6537   4.112   3.050   5.515
 1413ETH     H4 6538   4.273   3.121   5.542
 1413ETH     H5 6539   4.325   3.017   5.326
 1414ETH      C 6540   4.660   4.770   2.026
 1414ETH     C1 6541   4.700   4.772   2.175
 1414ETH      O 6542   4.817   4.693   2.192
 1414ETH      H 6543   4.740   4.812   1.964
 1414ETH     H1 6544   4.569   4.830   2.010
 1414ETH     H2 6545   4.639   4.668   1.993
 1414ETH     H3 6546   4.718   4.876   2.207
 1414ETH     H4 6547   4.618   4.732   2.236
 1414ETH     H5 6548   4.793   4.603   2.164
 1415ETH      C 6549   5.101   0.487   2.555
 1415ETH     C1 6550   5.154   0.620   2.500
 1415ETH      O 6551   5.115   0.725   2.586
 1415ETH      H 6552   5.142   0.466   2.654
 1415ETH     H1 6553   5.128   0.404   2.488
 1415ETH     H2 6554   4.991   0.489   2.563
 1415ETH     H3 6555   5.263   0.615   2.493
 1415ETH     H4 6556   5.114   0.636   2.399
 1415ETH     H5 6557   5.018   0.723   2.596
 1416ETH      C 6558   4.034   5.544   2.371
 1416ETH     C1 6559   4.142   5.478   2.285
 1416ETH      O 6560   4.112   5.340   2.267
 1416ETH      H 6561   3.936   5.536   2.322
 1416ETH     H1 6562   4.055   5.650   2.386
 1416ETH     H2 6563   4.025   5.496   2.470
 1416ETH     H3 6564   4.148   5.529   2.189
 1416ETH     H4 6565   4.239   5.488   2.336
 1416ETH     H5 6566   4.093   5.302   2.355
 1417ETH      C 6567   3.757   5.355   3.941
 1417ETH     C1 6568   3.744   5.380   4.092
 1417ETH      O 6569   3.860   5.450   4.139
 1417ETH      H 6570   3.765   5.450   3.886
 1417ETH     H1 6571   3.667   5.303   3.905
 1417ETH     H2 6572   3.844   5.293   3.918
 1417ETH     H3 6573   3.654   5.439   4.112
 1417ETH     H4 6574   3.735   5.284   4.144
 1417ETH     H5 6575   3.938   5.406   4.101
 1418ETH      C 6576   1.842   1.639   0.759
 1418ETH     C1 6577   1.912   1.713   0.874
 1418ETH      O 6578   1.894   1.854   0.857
 1418ETH      H 6579   1.734   1.660   0.759
 1418ETH     H1 6580   1.855   1.531   0.770
 1418ETH     H2 6581   1.884   1.668   0.662
 1418ETH     H3 6582   1.870   1.680   0.969
 1418ETH     H4 6583   2.019   1.689   0.874
 1418ETH     H5 6584   1.941   1.877   0.775
 1419ETH      C 6585   4.459   2.018   0.486
 1419ETH     C1 6586   4.548   1.898   0.520
 1419ETH      O 6587   4.524   1.794   0.426
 1419ETH      H 6588   4.480   2.054   0.385
 1419ETH     H1 6589   4.476   2.100   0.556
 1419ETH     H2 6590   4.353   1.990   0.491
 1419ETH     H3 6591   4.654   1.929   0.517
 1419ETH     H4 6592   4.527   1.864   0.623
 1419ETH     H5 6593   4.430   1.770   0.432
 1420ETH      C 6594   5.467   3.671   2.022
 1420ETH     C1 6595   5.392   3.541   1.992
 1420ETH      O 6596   5.405   3.510   1.853
 1420ETH      H 6597   5.573   3.661   1.998
 1420ETH     H1 6598   5.458   3.696   2.129
 1420ETH     H2 6599   5.425   3.755   1.965
 1420ETH     H3 6600   5.433   3.460   2.053
 1420ETH     H4 6601   5.286   3.552   2.019
 1420ETH     H5 6602   5.365   3.584   1.805
 1421ETH      C 6603   3.203   5.541   4.405
 1421ETH     C1 6604   3.162   5.583   4.265
 1421ETH      O 6605   3.033   5.644   4.270
 1421ETH      H 6606   3.221   5.628   4.470
 1421ETH     H1 6607   3.297   5.484   4.397
 1421ETH     H2 6608   3.128   5.476   4.452
 1421ETH     H3 6609   3.237   5.651   4.223
 1421ETH     H4 6610   3.158   5.493   4.201
 1421ETH     H5 6611   2.979   5.591   4.331
 1422ETH      C 6612   2.887   0.443   4.881
 1422ETH     C1 6613   2.761   0.478   4.962
 1422ETH      O 6614   2.781   0.446   5.099
 1422ETH      H 6615   2.972   0.502   4.916
 1422ETH     H1 6616   2.871   0.465   4.775
 1422ETH     H2 6617   2.912   0.336   4.891
 1422ETH     H3 6618   2.739   0.585   4.951
 1422ETH     H4 6619   2.675   0.422   4.922
 1422ETH     H5 6620   2.823   0.358   5.103
 1423ETH      C 6621   3.440   2.863   1.562
 1423ETH     C1 6622   3.288   2.861   1.584
 1423ETH      O 6623   3.242   2.993   1.607
 1423ETH      H 6624   3.466   2.931   1.480
 1423ETH     H1 6625   3.477   2.763   1.537
 1423ETH     H2 6626   3.491   2.897   1.652
 1423ETH     H3 6627   3.237   2.818   1.497
 1423ETH     H4 6628   3.264   2.796   1.669
 1423ETH     H5 6629   3.272   3.017   1.697
 1424ETH      C 6630   0.459   1.544   2.930
 1424ETH     C1 6631   0.493   1.397   2.956
 1424ETH      O 6632   0.507   1.375   3.096
 1424ETH      H 6633   0.362   1.570   2.974
 1424ETH     H1 6634   0.455   1.564   2.822
 1424ETH     H2 6635   0.534   1.611   2.974
 1424ETH     H3 6636   0.414   1.333   2.915
 1424ETH     H4 6637   0.587   1.371   2.904
 1424ETH     H5 6638   0.578   1.435   3.126
 1425ETH      C 6639   3.654   4.193   4.157
 1425ETH     C1 6640   3.505   4.161   4.147
 1425ETH      O 6641   3.446   4.249   4.051
 1425ETH      H 6642   3.703   4.176   4.060
 1425ETH     H1 6643   3.702   4.129   4.232
 1425ETH     H2 6644   3.671   4.297   4.185
 1425ETH     H3 6645   3.491   4.057   4.117
 1425ETH     H4 6646   3.457   4.174   4.245
 1425ETH     H5 6647   3.443   4.338   4.092
 1426ETH      C 6648   1.414   2.487   1.071
 1426ETH     C1 6649   1.316   2.432   0.967
 1426ETH      O 6650   1.327   2.290   0.964
 1426ETH      H 6651   1.393   2.445   1.170
 1426ETH     H1 6652   1.406   2.596   1.077
 1426ETH     H2 6653   1.518   2.461   1.045
 1426ETH     H3 6654   1.214   2.462   0.995
 1426ETH     H4 6655   1.339   2.475   0.869
 1426ETH     H5 6656   1.417   2.269   0.932
 1427ETH      C 6657   2.522   4.945   2.269
 1427ETH     C1 6658   2.634   5.049   2.259
 1427ETH      O 6659   2.760   4.984   2.276
 1427ETH      H 6660   2.529   4.873   2.187
 1427ETH     H1 6661   2.424   4.994   2.264
 1427ETH     H2 6662   2.528   4.890   2.364
 1427ETH     H3 6663   2.629   5.100   2.162
 1427ETH     H4 6664   2.621   5.125   2.338
 1427ETH     H5 6665   2.752   4.928   2.355
 1428ETH      C 6666   3.675   2.145   4.485
 1428ETH     C1 6667   3.800   2.097   4.411
 1428ETH      O 6668   3.804   2.157   4.283
 1428ETH      H 6669   3.674   2.254   4.490
 1428ETH     H1 6670   3.674   2.105   4.587
 1428ETH     H2 6671   3.584   2.111   4.434
 1428ETH     H3 6672   3.890   2.126   4.468
 1428ETH     H4 6673   3.800   1.988   4.402
 1428ETH     H5 6674   3.730   2.123   4.231
 1429ETH      C 6675   2.153   5.105   2.229
 1429ETH     C1 6676   2.064   5.205   2.154
 1429ETH      O 6677   1.930   5.156   2.146
 1429ETH      H 6678   2.117   5.090   2.332
 1429ETH     H1 6679   2.255   5.145   2.235
 1429ETH     H2 6680   2.156   5.008   2.178
 1429ETH     H3 6681   2.066   5.301   2.207
 1429ETH     H4 6682   2.104   5.221   2.053
 1429ETH     H5 6683   1.933   5.064   2.114
 1430ETH      C 6684   4.072   4.613   2.122
 1430ETH     C1 6685   3.937   4.610   2.050
 1430ETH      O 6686   3.939   4.514   1.945
 1430ETH      H 6687   4.095   4.517   2.169
 1430ETH     H1 6688   4.072   4.690   2.200
 1430ETH     H2 6689   4.151   4.636   2.050
 1430ETH     H3 6690   3.858   4.589   2.123
 1430ETH     H4 6691   3.918   4.710   2.007
 1430ETH     H5 6692   4.028   4.514   1.906
 1431ETH      C 6693   3.626   1.535   1.734
 1431ETH     C1 6694   3.752   1.618   1.760
 1431ETH      O 6695   3.854   1.581   1.667
 1431ETH      H 6696   3.590   1.550   1.632
 1431ETH     H1 6697   3.546   1.563   1.804
 1431ETH     H2 6698   3.649   1.429   1.749
 1431ETH     H3 6699   3.727   1.725   1.750
 1431ETH     H4 6700   3.786   1.600   1.863
 1431ETH     H5 6701   3.865   1.485   1.672
 1432ETH      C 6702   4.953   4.532   2.623
 1432ETH     C1 6703   5.066   4.489   2.528
 1432ETH      O 6704   5.169   4.587   2.530
 1432ETH      H 6705   4.991   4.542   2.725
 1432ETH     H1 6706   4.873   4.457   2.623
 1432ETH     H2 6707   4.910   4.627   2.592
 1432ETH     H3 6708   5.105   4.392   2.560
 1432ETH     H4 6709   5.025   4.478   2.426
 1432ETH     H5 6710   5.130   4.671   2.500
 1433ETH      C 6711   3.103   2.382   5.052
 1433ETH     C1 6712   3.146   2.252   5.117
 1433ETH      O 6713   3.207   2.290   5.239
 1433ETH      H 6714   3.034   2.436   5.119
 1433ETH     H1 6715   3.051   2.360   4.957
 1433ETH     H2 6716   3.189   2.447   5.033
 1433ETH     H3 6717   3.060   2.187   5.134
 1433ETH     H4 6718   3.218   2.198   5.054
 1433ETH     H5 6719   3.295   2.325   5.218
 1434ETH      C 6720   0.800   3.130   5.252
 1434ETH     C1 6721   0.694   3.216   5.320
 1434ETH      O 6722   0.607   3.269   5.221
 1434ETH      H 6723   0.754   3.047   5.198
 1434ETH     H1 6724   0.870   3.089   5.326
 1434ETH     H2 6725   0.858   3.189   5.180
 1434ETH     H3 6726   0.638   3.154   5.392
 1434ETH     H4 6727   0.742   3.297   5.376
 1434ETH     H5 6728   0.662   3.325   5.165
 1435ETH      C 6729   3.491   1.647   2.521
 1435ETH     C1 6730   3.478   1.792   2.570
 1435ETH      O 6731   3.527   1.879   2.468
 1435ETH      H 6732   3.431   1.630   2.432
 1435ETH     H1 6733   3.461   1.577   2.599
 1435ETH     H2 6734   3.596   1.627   2.496
 1435ETH     H3 6735   3.374   1.814   2.594
 1435ETH     H4 6736   3.538   1.805   2.662
 1435ETH     H5 6737   3.621   1.857   2.456
 1436ETH      C 6738   4.119   0.779   2.505
 1436ETH     C1 6739   3.981   0.773   2.438
 1436ETH      O 6740   3.882   0.808   2.534
 1436ETH      H 6741   4.139   0.880   2.543
 1436ETH     H1 6742   4.198   0.754   2.432
 1436ETH     H2 6743   4.125   0.709   2.588
 1436ETH     H3 6744   3.978   0.843   2.353
 1436ETH     H4 6745   3.963   0.672   2.399
 1436ETH     H5 6746   3.883   0.740   2.603
 1437ETH      C 6747   4.838   1.142   5.556
 1437ETH     C1 6748   4.754   1.267   5.527
 1437ETH      O 6749   4.660   1.285   5.633
 1437ETH      H 6750   4.893   1.154   5.650
 1437ETH     H1 6751   4.911   1.126   5.476
 1437ETH     H2 6752   4.775   1.053   5.563
 1437ETH     H3 6753   4.819   1.355   5.518
 1437ETH     H4 6754   4.701   1.254   5.432
 1437ETH     H5 6755   4.603   1.207   5.634
 1438ETH      C 6756   4.919   3.551   1.375
 1438ETH     C1 6757   5.069   3.521   1.375
 1438ETH      O 6758   5.088   3.382   1.348
 1438ETH      H 6759   4.875   3.531   1.277
 1438ETH     H1 6760   4.901   3.656   1.400
 1438ETH     H2 6761   4.868   3.489   1.450
 1438ETH     H3 6762   5.119   3.584   1.300
 1438ETH     H4 6763   5.111   3.547   1.474
 1438ETH     H5 6764   5.036   3.336   1.415
 1439ETH      C 6765   3.794   5.579   2.065
 1439ETH     C1 6766   3.673   5.556   2.158
 1439ETH      O 6767   3.705   5.461   2.259
 1439ETH      H 6768   3.878   5.624   2.120
 1439ETH     H1 6769   3.767   5.647   1.984
 1439ETH     H2 6770   3.828   5.485   2.021
 1439ETH     H3 6771   3.644   5.651   2.203
 1439ETH     H4 6772   3.589   5.519   2.098
 1439ETH     H5 6773   3.750   5.386   2.217
 1440ETH      C 6774   3.414   3.953   5.292
 1440ETH     C1 6775   3.525   3.846   5.303
 1440ETH      O 6776   3.465   3.717   5.302
 1440ETH      H 6777   3.357   3.940   5.200
 1440ETH     H1 6778   3.458   4.053   5.291
 1440ETH     H2 6779   3.346   3.945   5.378
 1440ETH     H3 6780   3.593   3.856   5.218
 1440ETH     H4 6781   3.582   3.862   5.395
 1440ETH     H5 6782   3.407   3.711   5.380
 1441ETH      C 6783   1.503   5.163   1.002
 1441ETH     C1 6784   1.526   5.171   1.154
 1441ETH      O 6785   1.450   5.069   1.216
 1441ETH      H 6786   1.535   5.066   0.963
 1441ETH     H1 6787   1.559   5.243   0.951
 1441ETH     H2 6788   1.396   5.177   0.979
 1441ETH     H3 6789   1.633   5.158   1.176
 1441ETH     H4 6790   1.495   5.270   1.191
 1441ETH     H5 6791   1.356   5.091   1.199
 1442ETH      C 6792   1.891   1.084   4.543
 1442ETH     C1 6793   2.023   1.033   4.485
 1442ETH      O 6794   2.006   0.897   4.446
 1442ETH      H 6795   1.811   1.076   4.468
 1442ETH     H1 6796   1.898   1.189   4.574
 1442ETH     H2 6797   1.863   1.024   4.630
 1442ETH     H3 6798   2.051   1.096   4.399
 1442ETH     H4 6799   2.101   1.043   4.561
 1442ETH     H5 6800   1.997   0.844   4.527
 1443ETH      C 6801   4.322   5.051   0.921
 1443ETH     C1 6802   4.309   4.939   0.817
 1443ETH      O 6803   4.337   4.993   0.688
 1443ETH      H 6804   4.424   5.091   0.921
 1443ETH     H1 6805   4.299   5.013   1.021
 1443ETH     H2 6806   4.252   5.133   0.898
 1443ETH     H3 6807   4.380   4.859   0.842
 1443ETH     H4 6808   4.208   4.896   0.820
 1443ETH     H5 6809   4.266   5.056   0.666
 1444ETH      C 6810   2.777   2.724   0.852
 1444ETH     C1 6811   2.782   2.762   0.703
 1444ETH      O 6812   2.824   2.898   0.691
 1444ETH      H 6813   2.877   2.731   0.896
 1444ETH     H1 6814   2.741   2.622   0.864
 1444ETH     H2 6815   2.710   2.791   0.907
 1444ETH     H3 6816   2.851   2.695   0.651
 1444ETH     H4 6817   2.682   2.749   0.660
 1444ETH     H5 6818   2.787   2.946   0.767
 1445ETH      C 6819   2.708   1.626   3.996
 1445ETH     C1 6820   2.810   1.689   3.900
 1445ETH      O 6821   2.921   1.741   3.973
 1445ETH      H 6822   2.753   1.543   4.052
 1445ETH     H1 6823   2.623   1.586   3.940
 1445ETH     H2 6824   2.671   1.700   4.068
 1445ETH     H3 6825   2.844   1.612   3.829
 1445ETH     H4 6826   2.761   1.769   3.843
 1445ETH     H5 6827   2.887   1.803   4.039
 1446ETH      C 6828   3.768   3.509   2.757
 1446ETH     C1 6829   3.623   3.545   2.788
 1446ETH      O 6830   3.538   3.449   2.728
 1446ETH      H 6831   3.792   3.409   2.795
 1446ETH     H1 6832   3.837   3.581   2.802
 1446ETH     H2 6833   3.785   3.509   2.648
 1446ETH     H3 6834   3.608   3.546   2.897
 1446ETH     H4 6835   3.600   3.645   2.749
 1446ETH     H5 6836   3.554   3.453   2.632
 1447ETH      C 6837   1.643   0.815   5.263
 1447ETH     C1 6838   1.739   0.887   5.166
 1447ETH      O 6839   1.681   0.893   5.036
 1447ETH      H 6840   1.549   0.870   5.274
 1447ETH     H1 6841   1.689   0.806   5.362
 1447ETH     H2 6842   1.620   0.714   5.227
 1447ETH     H3 6843   1.759   0.988   5.204
 1447ETH     H4 6844   1.834   0.833   5.162
 1447ETH     H5 6845   1.650   0.803   5.017
 1448ETH      C 6846   3.762   2.901   5.387
 1448ETH     C1 6847   3.910   2.929   5.362
 1448ETH      O 6848   3.945   2.880   5.234
 1448ETH      H 6849   3.701   2.953   5.312
 1448ETH     H1 6850   3.732   2.935   5.486
 1448ETH     H2 6851   3.743   2.794   5.379
 1448ETH     H3 6852   3.929   3.037   5.369
 1448ETH     H4 6853   3.970   2.880   5.440
 1448ETH     H5 6854   3.941   2.783   5.239
 1449ETH      C 6855   1.614   5.361   1.908
 1449ETH     C1 6856   1.660   5.494   1.846
 1449ETH      O 6857   1.612   5.603   1.924
 1449ETH      H 6858   1.654   5.349   2.009
 1449ETH     H1 6859   1.650   5.277   1.847
 1449ETH     H2 6860   1.505   5.356   1.912
 1449ETH     H3 6861   1.769   5.496   1.841
 1449ETH     H4 6862   1.621   5.502   1.743
 1449ETH     H5 6863   1.517   5.588   1.940
 1450ETH      C 6864   0.813   1.893   5.508
 1450ETH     C1 6865   0.854   2.028   5.449
 1450ETH      O 6866   0.955   2.009   5.350
 1450ETH      H 6867   0.771   1.827   5.431
 1450ETH     H1 6868   0.737   1.907   5.586
 1450ETH     H2 6869   0.898   1.842   5.554
 1450ETH     H3 6870   0.766   2.076   5.404
 1450ETH     H4 6871   0.891   2.093   5.529
 1450ETH     H5 6872   1.022   1.949   5.388
 1451ETH      C 6873   1.083   3.916   3.978
 1451ETH     C1 6874   1.235   3.918   3.978
 1451ETH      O 6875   1.281   3.787   3.945
 1451ETH      H 6876   1.047   3.886   3.880
 1451ETH     H1 6877   1.044   4.016   4.002
 1451ETH     H2 6878   1.045   3.845   4.053
 1451ETH     H3 6879   1.272   3.991   3.905
 1451ETH     H4 6880   1.271   3.948   4.077
 1451ETH     H5 6881   1.240   3.726   4.009
 1452ETH      C 6882   0.479   2.821   1.170
 1452ETH     C1 6883   0.524   2.899   1.045
 1452ETH      O 6884   0.611   3.006   1.082
 1452ETH      H 6885   0.564   2.773   1.220
 1452ETH     H1 6886   0.408   2.743   1.142
 1452ETH     H2 6887   0.430   2.888   1.242
 1452ETH     H3 6888   0.576   2.831   0.977
 1452ETH     H4 6889   0.436   2.939   0.994
 1452ETH     H5 6890   0.576   3.048   1.163
 1453ETH      C 6891   5.415   1.153   2.991
 1453ETH     C1 6892   5.272   1.099   2.996
 1453ETH      O 6893   5.245   1.051   3.128
 1453ETH      H 6894   5.428   1.234   3.063
 1453ETH     H1 6895   5.437   1.191   2.891
 1453ETH     H2 6896   5.487   1.073   3.014
 1453ETH     H3 6897   5.201   1.179   2.970
 1453ETH     H4 6898   5.260   1.018   2.923
 1453ETH     H5 6899   5.307   0.979   3.148
 1454ETH      C 6900   0.304   4.224   2.644
 1454ETH     C1 6901   0.442   4.287   2.665
 1454ETH      O 6902   0.537   4.217   2.585
 1454ETH      H 6903   0.275   4.229   2.538
 1454ETH     H1 6904   0.228   4.276   2.703
 1454ETH     H2 6905   0.305   4.118   2.674
 1454ETH     H3 6906   0.439   4.393   2.637
 1454ETH     H4 6907   0.469   4.283   2.771
 1454ETH     H5 6908   0.547   4.128   2.623
 1455ETH      C 6909   5.306   2.473   2.082
 1455ETH     C1 6910   5.299   2.325   2.122
 1455ETH      O 6911   5.391   2.303   2.228
 1455ETH      H 6912   5.281   2.537   2.168
 1455ETH     H1 6913   5.236   2.495   2.001
 1455ETH     H2 6914   5.407   2.500   2.048
 1455ETH     H3 6915   5.198   2.300   2.154
 1455ETH     H4 6916   5.325   2.261   2.036
 1455ETH     H5 6917   5.480   2.328   2.195
 1456ETH      C 6918   2.107   4.227   1.615
 1456ETH     C1 6919   2.037   4.092   1.622
 1456ETH      O 6920   2.094   4.002   1.528
 1456ETH      H 6921   2.213   4.218   1.639
 1456ETH     H1 6922   2.061   4.296   1.688
 1456ETH     H2 6923   2.097   4.272   1.515
 1456ETH     H3 6924   2.048   4.052   1.724
 1456ETH     H4 6925   1.930   4.105   1.602
 1456ETH     H5 6926   2.091   4.047   1.441
 1457ETH      C 6927   1.370   4.067   0.321
 1457ETH     C1 6928   1.368   3.920   0.364
 1457ETH      O 6929   1.251   3.859   0.312
 1457ETH      H 6930   1.367   4.075   0.212
 1457ETH     H1 6931   1.461   4.116   0.357
 1457ETH     H2 6932   1.283   4.121   0.362
 1457ETH     H3 6933   1.457   3.869   0.325
 1457ETH     H4 6934   1.370   3.913   0.473
 1457ETH     H5 6935   1.174   3.894   0.361
 1458ETH      C 6936   2.933   1.236   1.178
 1458ETH     C1 6937   2.788   1.288   1.178
 1458ETH      O 6938   2.790   1.430   1.187
 1458ETH      H 6939   2.989   1.278   1.094
 1458ETH     H1 6940   2.935   1.127   1.170
 1458ETH     H2 6941   2.984   1.264   1.271
 1458ETH     H3 6942   2.738   1.257   1.085
 1458ETH     H4 6943   2.733   1.244   1.262
 1458ETH     H5 6944   2.827   1.453   1.274
 1459ETH      C 6945   5.272   3.028   0.282
 1459ETH     C1 6946   5.178   2.916   0.331
 1459ETH      O 6947   5.071   2.902   0.238
 1459ETH      H 6948   5.315   3.002   0.185
 1459ETH     H1 6949   5.355   3.041   0.353
 1459ETH     H2 6950   5.218   3.123   0.273
 1459ETH     H3 6951   5.234   2.822   0.339
 1459ETH     H4 6952   5.139   2.942   0.430
 1459ETH     H5 6953   5.025   2.988   0.232
 1460ETH      C 6954   1.320   0.385   1.754
 1460ETH     C1 6955   1.340   0.531   1.800
 1460ETH      O 6956   1.425   0.600   1.709
 1460ETH      H 6957   1.275   0.381   1.654
 1460ETH     H1 6958   1.253   0.333   1.824
 1460ETH     H2 6959   1.416   0.332   1.752
 1460ETH     H3 6960   1.242   0.580   1.803
 1460ETH     H4 6961   1.383   0.532   1.901
 1460ETH     H5 6962   1.507   0.549   1.697
 1461ETH      C 6963   4.662   0.693   3.977
 1461ETH     C1 6964   4.512   0.695   3.945
 1461ETH      O 6965   4.461   0.826   3.970
 1461ETH      H 6966   4.715   0.767   3.916
 1461ETH     H1 6967   4.705   0.595   3.956
 1461ETH     H2 6968   4.680   0.717   4.083
 1461ETH     H3 6969   4.497   0.667   3.840
 1461ETH     H4 6970   4.460   0.620   4.007
 1461ETH     H5 6971   4.469   0.842   4.065
 1462ETH      C 6972   0.804   1.907   0.239
 1462ETH     C1 6973   0.703   1.793   0.255
 1462ETH      O 6974   0.606   1.799   0.151
 1462ETH      H 6975   0.859   1.897   0.144
 1462ETH     H1 6976   0.878   1.906   0.320
 1462ETH     H2 6977   0.754   2.004   0.241
 1462ETH     H3 6978   0.755   1.696   0.251
 1462ETH     H4 6979   0.653   1.801   0.352
 1462ETH     H5 6980   0.569   1.889   0.149
 1463ETH      C 6981   2.259   4.124   4.530
 1463ETH     C1 6982   2.267   4.029   4.410
 1463ETH      O 6983   2.394   3.964   4.407
 1463ETH      H 6984   2.262   4.068   4.624
 1463ETH     H1 6985   2.165   4.180   4.526
 1463ETH     H2 6986   2.341   4.196   4.528
 1463ETH     H3 6987   2.186   3.955   4.416
 1463ETH     H4 6988   2.252   4.088   4.319
 1463ETH     H5 6989   2.460   4.028   4.437
 1464ETH      C 6990   2.409   3.937   3.689
 1464ETH     C1 6991   2.381   3.790   3.653
 1464ETH      O 6992   2.336   3.725   3.769
 1464ETH      H 6993   2.318   3.984   3.726
 1464ETH     H1 6994   2.444   3.993   3.601
 1464ETH     H2 6995   2.486   3.942   3.767
 1464ETH     H3 6996   2.305   3.785   3.574
 1464ETH     H4 6997   2.473   3.743   3.615
 1464ETH     H5 6998   2.408   3.724   3.834
 1465ETH      C 6999   4.957   2.824   3.302
 1465ETH     C1 7000   4.984   2.819   3.151
 1465ETH      O 7001   4.907   2.714   3.092
 1465ETH      H 7002   4.850   2.841   3.322
 1465ETH     H1 7003   5.013   2.906   3.348
 1465ETH     H2 7004   4.986   2.730   3.351
 1465ETH     H3 7005   4.958   2.915   3.106
 1465ETH     H4 7006   5.091   2.801   3.134
 1465ETH     H5 7007   4.932   2.632   3.137
 1466ETH      C 7008   3.493   3.529   1.571
 1466ETH     C1 7009   3.635   3.552   1.518
 1466ETH      O 7010   3.632   3.551   1.376
 1466ETH      H 7011   3.427   3.611   1.541
 1466ETH     H1 7012   3.497   3.525   1.680
 1466ETH     H2 7013   3.452   3.434   1.535
 1466ETH     H3 7014   3.673   3.649   1.555
 1466ETH     H4 7015   3.701   3.473   1.556
 1466ETH     H5 7016   3.593   3.466   1.350
 1467ETH      C 7017   3.471   0.674   4.659
 1467ETH     C1 7018   3.581   0.770   4.705
 1467ETH      O 7019   3.550   0.818   4.836
 1467ETH      H 7020   3.466   0.587   4.725
 1467ETH     H1 7021   3.491   0.639   4.557
 1467ETH     H2 7022   3.373   0.725   4.659
 1467ETH     H3 7023   3.678   0.718   4.705
 1467ETH     H4 7024   3.588   0.853   4.634
 1467ETH     H5 7025   3.461   0.857   4.831
 1468ETH      C 7026   3.085   2.958   5.062
 1468ETH     C1 7027   3.038   2.852   5.163
 1468ETH      O 7028   3.009   2.914   5.289
 1468ETH      H 7029   3.010   3.037   5.049
 1468ETH     H1 7030   3.103   2.912   4.964
 1468ETH     H2 7031   3.179   3.004   5.095
 1468ETH     H3 7032   2.947   2.804   5.124
 1468ETH     H4 7033   3.114   2.775   5.174
 1468ETH     H5 7034   3.093   2.944   5.328
 1469ETH      C 7035   2.193   3.522   2.123
 1469ETH     C1 7036   2.198   3.605   1.993
 1469ETH      O 7037   2.066   3.639   1.954
 1469ETH      H 7038   2.146   3.579   2.203
 1469ETH     H1 7039   2.295   3.494   2.154
 1469ETH     H2 7040   2.136   3.429   2.109
 1469ETH     H3 7041   2.257   3.696   2.011
 1469ETH     H4 7042   2.248   3.547   1.914
 1469ETH     H5 7043   2.016   3.556   1.940
 1470ETH      C 7044   2.577   4.266   5.541
 1470ETH     C1 7045   2.729   4.270   5.528
 1470ETH      O 7046   2.761   4.281   5.390
 1470ETH      H 7047   2.533   4.357   5.499
 1470ETH     H1 7048   2.546   4.257   5.646
 1470ETH     H2 7049   2.537   4.180   5.485
 1470ETH     H3 7050   2.768   4.357   5.584
 1470ETH     H4 7051   2.773   4.180   5.571
 1470ETH     H5 7052   2.740   4.196   5.348
 1471ETH      C 7053   3.655   3.176   4.521
 1471ETH     C1 7054   3.569   3.126   4.404
 1471ETH      O 7055   3.431   3.139   4.435
 1471ETH      H 7056   3.639   3.283   4.539
 1471ETH     H1 7057   3.762   3.162   4.499
 1471ETH     H2 7058   3.632   3.121   4.613
 1471ETH     H3 7059   3.594   3.183   4.314
 1471ETH     H4 7060   3.594   3.020   4.386
 1471ETH     H5 7061   3.417   3.117   4.529
 1472ETH      C 7062   2.084   1.688   3.813
 1472ETH     C1 7063   2.163   1.596   3.718
 1472ETH      O 7064   2.204   1.479   3.788
 1472ETH      H 7065   1.992   1.639   3.848
 1472ETH     H1 7066   2.056   1.781   3.762
 1472ETH     H2 7067   2.143   1.714   3.902
 1472ETH     H3 7068   2.099   1.569   3.633
 1472ETH     H4 7069   2.250   1.650   3.679
 1472ETH     H5 7070   2.257   1.508   3.864
 1473ETH      C 7071   5.082   0.245   3.169
 1473ETH     C1 7072   5.172   0.225   3.292
 1473ETH      O 7073   5.101   0.153   3.392
 1473ETH      H 7074   5.051   0.149   3.126
 1473ETH     H1 7075   5.135   0.302   3.092
 1473ETH     H2 7076   4.992   0.301   3.197
 1473ETH     H3 7077   5.262   0.170   3.262
 1473ETH     H4 7078   5.203   0.323   3.330
 1473ETH     H5 7079   5.015   0.197   3.406
 1474ETH      C 7080   1.274   3.392   3.699
 1474ETH     C1 7081   1.324   3.498   3.797
 1474ETH      O 7082   1.422   3.579   3.733
 1474ETH      H 7083   1.232   3.440   3.609
 1474ETH     H1 7084   1.196   3.331   3.745
 1474ETH     H2 7085   1.357   3.326   3.669
 1474ETH     H3 7086   1.239   3.560   3.829
 1474ETH     H4 7087   1.366   3.450   3.887
 1474ETH     H5 7088   1.499   3.522   3.713
 1475ETH      C 7089   4.719   2.701   1.901
 1475ETH     C1 7090   4.626   2.596   1.963
 1475ETH      O 7091   4.490   2.640   1.952
 1475ETH      H 7092   4.698   2.712   1.794
 1475ETH     H1 7093   4.824   2.670   1.912
 1475ETH     H2 7094   4.707   2.799   1.949
 1475ETH     H3 7095   4.640   2.500   1.912
 1475ETH     H4 7096   4.653   2.583   2.068
 1475ETH     H5 7097   4.488   2.733   1.983
 1476ETH      C 7098   5.543   1.017   1.054
 1476ETH     C1 7099   5.426   1.100   1.001
 1476ETH      O 7100   5.320   1.091   1.097
 1476ETH      H 7101   5.573   1.054   1.153
 1476ETH     H1 7102   5.629   1.024   0.987
 1476ETH     H2 7103   5.514   0.912   1.064
 1476ETH     H3 7104   5.457   1.204   0.989
 1476ETH     H4 7105   5.394   1.063   0.903
 1476ETH     H5 7106   5.274   1.007   1.083
 1477ETH      C 7107   5.456   5.152   1.749
 1477ETH     C1 7108   5.453   5.026   1.661
 1477ETH      O 7109   5.432   4.912   1.744
 1477ETH      H 7110   5.361   5.164   1.802
 1477ETH     H1 7111   5.473   5.241   1.688
 1477ETH     H2 7112   5.537   5.145   1.823
 1477ETH     H3 7113   5.373   5.036   1.588
 1477ETH     H4 7114   5.548   5.017   1.607
 1477ETH     H5 7115   5.508   4.907   1.805
 1478ETH      C 7116   5.560   2.390   1.410
 1478ETH     C1 7117   5.589   2.241   1.436
 1478ETH      O 7118   5.657   2.186   1.325
 1478ETH      H 7119   5.653   2.444   1.390
 1478ETH     H1 7120   5.511   2.435   1.497
 1478ETH     H2 7121   5.494   2.401   1.323
 1478ETH     H3 7122   5.650   2.231   1.527
 1478ETH     H4 7123   5.494   2.188   1.452
 1478ETH     H5 7124   5.597   2.187   1.248
 1479ETH      C 7125   1.054   1.959   3.260
 1479ETH     C1 7126   1.093   1.859   3.369
 1479ETH      O 7127   0.975   1.812   3.434
 1479ETH      H 7128   0.990   1.909   3.186
 1479ETH     H1 7129   1.143   1.998   3.209
 1479ETH     H2 7130   0.999   2.044   3.303
 1479ETH     H3 7131   1.147   1.776   3.323
 1479ETH     H4 7132   1.159   1.907   3.442
 1479ETH     H5 7133   0.929   1.891   3.469
 1480ETH      C 7134   2.896   4.357   3.778
 1480ETH     C1 7135   2.810   4.484   3.765
 1480ETH      O 7136   2.687   4.464   3.834
 1480ETH      H 7137   2.918   4.337   3.883
 1480ETH     H1 7138   2.991   4.371   3.725
 1480ETH     H2 7139   2.844   4.271   3.735
 1480ETH     H3 7140   2.864   4.569   3.807
 1480ETH     H4 7141   2.791   4.505   3.659
 1480ETH     H5 7142   2.640   4.390   3.792
 1481ETH      C 7143   4.331   0.563   5.332
 1481ETH     C1 7144   4.355   0.466   5.449
 1481ETH      O 7145   4.279   0.507   5.562
 1481ETH      H 7146   4.224   0.567   5.306
 1481ETH     H1 7147   4.387   0.532   5.244
 1481ETH     H2 7148   4.363   0.665   5.359
 1481ETH     H3 7149   4.326   0.365   5.418
 1481ETH     H4 7150   4.462   0.465   5.473
 1481ETH     H5 7151   4.297   0.602   5.577
 1482ETH      C 7152   2.284   3.063   1.157
 1482ETH     C1 7153   2.197   3.124   1.268
 1482ETH      O 7154   2.231   3.064   1.393
 1482ETH      H 7155   2.390   3.085   1.174
 1482ETH     H1 7156   2.255   3.105   1.060
 1482ETH     H2 7157   2.271   2.954   1.152
 1482ETH     H3 7158   2.214   3.232   1.272
 1482ETH     H4 7159   2.091   3.106   1.245
 1482ETH     H5 7160   2.218   2.968   1.382
 1483ETH      C 7161   4.743   2.236   1.590
 1483ETH     C1 7162   4.776   2.091   1.554
 1483ETH      O 7163   4.811   2.021   1.673
 1483ETH      H 7164   4.658   2.240   1.660
 1483ETH     H1 7165   4.716   2.292   1.500
 1483ETH     H2 7166   4.829   2.285   1.637
 1483ETH     H3 7167   4.690   2.044   1.506
 1483ETH     H4 7168   4.860   2.090   1.483
 1483ETH     H5 7169   4.894   2.057   1.707
 1484ETH      C 7170   1.436   0.895   3.675
 1484ETH     C1 7171   1.359   0.765   3.651
 1484ETH      O 7172   1.402   0.668   3.747
 1484ETH      H 7173   1.419   0.932   3.776
 1484ETH     H1 7174   1.403   0.973   3.605
 1484ETH     H2 7175   1.543   0.880   3.659
 1484ETH     H3 7176   1.251   0.783   3.660
 1484ETH     H4 7177   1.378   0.728   3.549
 1484ETH     H5 7178   1.494   0.648   3.726
 1485ETH      C 7179   0.239   3.985   2.219
 1485ETH     C1 7180   0.318   3.874   2.287
 1485ETH      O 7181   0.326   3.905   2.426
 1485ETH      H 7182   0.140   3.994   2.265
 1485ETH     H1 7183   0.226   3.964   2.112
 1485ETH     H2 7184   0.291   4.081   2.229
 1485ETH     H3 7185   0.268   3.778   2.272
 1485ETH     H4 7186   0.418   3.868   2.242
 1485ETH     H5 7187   0.405   3.959   2.439
 1486ETH      C 7188   5.046   0.832   2.913
 1486ETH     C1 7189   4.906   0.775   2.887
 1486ETH      O 7190   4.831   0.776   3.008
 1486ETH      H 7191   5.039   0.937   2.946
 1486ETH     H1 7192   5.106   0.830   2.822
 1486ETH     H2 7193   5.098   0.774   2.990
 1486ETH     H3 7194   4.856   0.835   2.810
 1486ETH     H4 7195   4.915   0.672   2.849
 1486ETH     H5 7196   4.887   0.737   3.077
 1487ETH      C 7197   0.428   0.573   4.053
 1487ETH     C1 7198   0.545   0.659   4.103
 1487ETH      O 7199   0.574   0.757   4.003
 1487ETH      H 7200   0.340   0.636   4.034
 1487ETH     H1 7201   0.401   0.497   4.127
 1487ETH     H2 7202   0.454   0.523   3.959
 1487ETH     H3 7203   0.517   0.707   4.197
 1487ETH     H4 7204   0.632   0.595   4.121
 1487ETH     H5 7205   0.614   0.710   3.928
 1488ETH      C 7206   0.323   5.582   4.772
 1488ETH     C1 7207   0.408   5.532   4.890
 1488ETH      O 7208   0.522   5.464   4.839
 1488ETH      H 7209   0.382   5.651   4.709
 1488ETH     H1 7210   0.235   5.636   4.809
 1488ETH     H2 7211   0.289   5.499   4.710
 1488ETH     H3 7212   0.439   5.618   4.951
 1488ETH     H4 7213   0.348   5.465   4.952
 1488ETH     H5 7214   0.490   5.386   4.790
 1489ETH      C 7215   5.431   0.825   4.520
 1489ETH     C1 7216   5.472   0.946   4.435
 1489ETH      O 7217   5.546   0.900   4.322
 1489ETH      H 7218   5.372   0.754   4.460
 1489ETH     H1 7219   5.370   0.857   4.605
 1489ETH     H2 7220   5.519   0.772   4.558
 1489ETH     H3 7221   5.382   1.000   4.402
 1489ETH     H4 7222   5.532   1.015   4.496
 1489ETH     H5 7223   5.626   0.857   4.357
 1490ETH      C 7224   5.029   3.800   3.747
 1490ETH     C1 7225   4.886   3.761   3.789
 1490ETH      O 7226   4.877   3.764   3.931
 1490ETH      H 7227   5.053   3.901   3.780
 1490ETH     H1 7228   5.039   3.796   3.638
 1490ETH     H2 7229   5.102   3.730   3.789
 1490ETH     H3 7230   4.815   3.832   3.746
 1490ETH     H4 7231   4.862   3.661   3.751
 1490ETH     H5 7232   4.945   3.704   3.967
 1491ETH      C 7233   2.030   2.824   2.744
 1491ETH     C1 7234   2.136   2.758   2.833
 1491ETH      O 7235   2.224   2.680   2.753
 1491ETH      H 7236   2.078   2.887   2.668
 1491ETH     H1 7237   1.964   2.886   2.805
 1491ETH     H2 7238   1.970   2.749   2.693
 1491ETH     H3 7239   2.194   2.835   2.886
 1491ETH     H4 7240   2.087   2.695   2.909
 1491ETH     H5 7241   2.170   2.613   2.707
 1492ETH      C 7242   1.410   1.530   2.111
 1492ETH     C1 7243   1.380   1.550   1.962
 1492ETH      O 7244   1.251   1.609   1.951
 1492ETH      H 7245   1.405   1.627   2.162
 1492ETH     H1 7246   1.511   1.489   2.124
 1492ETH     H2 7247   1.338   1.462   2.158
 1492ETH     H3 7248   1.456   1.615   1.919
 1492ETH     H4 7249   1.383   1.453   1.911
 1492ETH     H5 7250   1.190   1.547   1.995
 1493ETH      C 7251   1.392   4.102   1.918
 1493ETH     C1 7252   1.246   4.147   1.906
 1493ETH      O 7253   1.168   4.086   2.009
 1493ETH      H 7254   1.435   4.135   2.013
 1493ETH     H1 7255   1.451   4.146   1.837
 1493ETH     H2 7256   1.400   3.993   1.910
 1493ETH     H3 7257   1.240   4.256   1.914
 1493ETH     H4 7258   1.207   4.118   1.808
 1493ETH     H5 7259   1.184   3.990   2.006
 1494ETH      C 7260   2.521   5.429   2.143
 1494ETH     C1 7261   2.543   5.397   1.994
 1494ETH      O 7262   2.682   5.405   1.961
 1494ETH      H 7263   2.574   5.358   2.207
 1494ETH     H1 7264   2.415   5.423   2.167
 1494ETH     H2 7265   2.556   5.530   2.167
 1494ETH     H3 7266   2.505   5.296   1.973
 1494ETH     H4 7267   2.486   5.468   1.933
 1494ETH     H5 7268   2.715   5.486   2.003
 1495ETH      C 7269   5.042   5.499   2.114
 1495ETH     C1 7270   4.931   5.539   2.015
 1495ETH      O 7271   4.956   5.478   1.889
 1495ETH      H 7272   5.044   5.391   2.128
 1495ETH     H1 7273   5.025   5.547   2.211
 1495ETH     H2 7274   5.140   5.531   2.076
 1495ETH     H3 7275   4.834   5.507   2.055
 1495ETH     H4 7276   4.929   5.648   2.004
 1495ETH     H5 7277   5.050   5.492   1.866
 1496ETH      C 7278   4.713   2.086   2.253
 1496ETH     C1 7279   4.766   2.079   2.397
 1496ETH      O 7280   4.907   2.063   2.396
 1496ETH      H 7281   4.759   2.169   2.198
 1496ETH     H1 7282   4.605   2.100   2.252
 1496ETH     H2 7283   4.736   1.993   2.198
 1496ETH     H3 7284   4.739   2.173   2.448
 1496ETH     H4 7285   4.718   1.996   2.450
 1496ETH     H5 7286   4.927   1.980   2.349
 1497ETH      C 7287   1.559   0.862   0.330
 1497ETH     C1 7288   1.460   0.803   0.227
 1497ETH      O 7289   1.381   0.702   0.288
 1497ETH      H 7290   1.505   0.916   0.408
 1497ETH     H1 7291   1.627   0.933   0.281
 1497ETH     H2 7292   1.619   0.783   0.376
 1497ETH     H3 7293   1.397   0.883   0.187
 1497ETH     H4 7294   1.517   0.760   0.144
 1497ETH     H5 7295   1.438   0.653   0.350
 1498ETH      C 7296   3.948   3.960   5.207
 1498ETH     C1 7297   3.929   4.000   5.354
 1498ETH      O 7298   4.003   4.119   5.379
 1498ETH      H 7299   3.911   4.040   5.141
 1498ETH     H1 7300   3.892   3.869   5.185
 1498ETH     H2 7301   4.054   3.943   5.186
 1498ETH     H3 7302   3.822   4.017   5.374
 1498ETH     H4 7303   3.963   3.919   5.419
 1498ETH     H5 7304   4.096   4.100   5.357
 1499ETH      C 7305   2.731   5.011   3.492
 1499ETH     C1 7306   2.795   4.922   3.599
 1499ETH      O 7307   2.722   4.800   3.606
 1499ETH      H 7308   2.729   4.958   3.396
 1499ETH     H1 7309   2.788   5.103   3.479
 1499ETH     H2 7310   2.628   5.036   3.519
 1499ETH     H3 7311   2.899   4.902   3.573
 1499ETH     H4 7312   2.794   4.974   3.696
 1499ETH     H5 7313   2.640   4.818   3.655
 1500ETH      C 7314   0.653   0.442   2.709
 1500ETH     C1 7315   0.621   0.304   2.769
 1500ETH      O 7316   0.736   0.221   2.760
 1500ETH      H 7317   0.737   0.488   2.763
 1500ETH     H1 7318   0.566   0.508   2.716
 1500ETH     H2 7319   0.681   0.433   2.603
 1500ETH     H3 7320   0.591   0.316   2.874
 1500ETH     H4 7321   0.537   0.259   2.714
 1500ETH     H5 7322   0.758   0.210   2.666
 1501ETH      C 7323   3.792   4.161   1.661
 1501ETH     C1 7324   3.882   4.080   1.567
 1501ETH      O 7325   3.827   4.081   1.436
 1501ETH      H 7326   3.784   4.264   1.627
 1501ETH     H1 7327   3.833   4.161   1.762
 1501ETH     H2 7328   3.691   4.117   1.665
 1501ETH     H3 7329   3.983   4.124   1.566
 1501ETH     H4 7330   3.891   3.977   1.604
 1501ETH     H5 7331   3.739   4.041   1.441
 1502ETH      C 7332   2.510   3.950   3.226
 1502ETH     C1 7333   2.496   3.853   3.342
 1502ETH      O 7334   2.543   3.725   3.303
 1502ETH      H 7335   2.613   3.956   3.190
 1502ETH     H1 7336   2.482   4.051   3.260
 1502ETH     H2 7337   2.445   3.921   3.143
 1502ETH     H3 7338   2.555   3.891   3.427
 1502ETH     H4 7339   2.391   3.849   3.373
 1502ETH     H5 7340   2.493   3.697   3.224
 1503ETH      C 7341   4.738   3.266   1.130
 1503ETH     C1 7342   4.700   3.214   1.270
 1503ETH      O 7343   4.617   3.100   1.260
 1503ETH      H 7344   4.800   3.193   1.076
 1503ETH     H1 7345   4.796   3.359   1.139
 1503ETH     H2 7346   4.649   3.288   1.070
 1503ETH     H3 7347   4.791   3.191   1.326
 1503ETH     H4 7348   4.646   3.293   1.324
 1503ETH     H5 7349   4.560   3.109   1.182
 1504ETH      C 7350   0.511   2.118   4.852
 1504ETH     C1 7351   0.391   2.030   4.890
 1504ETH      O 7352   0.326   2.087   5.003
 1504ETH      H 7353   0.478   2.220   4.829
 1504ETH     H1 7354   0.561   2.077   4.764
 1504ETH     H2 7355   0.584   2.123   4.934
 1504ETH     H3 7356   0.322   2.024   4.806
 1504ETH     H4 7357   0.427   1.928   4.913
 1504ETH     H5 7358   0.393   2.101   5.072
 1505ETH      C 7359   3.325   4.966   2.136
 1505ETH     C1 7360   3.407   4.910   2.253
 1505ETH      O 7361   3.457   4.781   2.222
 1505ETH      H 7362   3.386   4.975   2.046
 1505ETH     H1 7363   3.286   5.065   2.161
 1505ETH     H2 7364   3.239   4.900   2.114
 1505ETH     H3 7365   3.490   4.979   2.274
 1505ETH     H4 7366   3.344   4.906   2.343
 1505ETH     H5 7367   3.383   4.726   2.190
 1506ETH      C 7368   5.469   0.753   0.575
 1506ETH     C1 7369   5.432   0.665   0.695
 1506ETH      O 7370   5.335   0.731   0.775
 1506ETH      H 7371   5.382   0.771   0.511
 1506ETH     H1 7372   5.546   0.704   0.514
 1506ETH     H2 7373   5.509   0.850   0.608
 1506ETH     H3 7374   5.393   0.569   0.658
 1506ETH     H4 7375   5.523   0.645   0.754
 1506ETH     H5 7376   5.364   0.823   0.784
 1507ETH      C 7377   0.599   3.350   4.268
 1507ETH     C1 7378   0.511   3.468   4.312
 1507ETH      O 7379   0.430   3.507   4.202
 1507ETH      H 7380   0.537   3.267   4.233
 1507ETH     H1 7381   0.660   3.315   4.352
 1507ETH     H2 7382   0.666   3.380   4.187
 1507ETH     H3 7383   0.448   3.437   4.396
 1507ETH     H4 7384   0.574   3.551   4.345
 1507ETH     H5 7385   0.489   3.540   4.132
 1508ETH      C 7386   3.137   2.481   3.532
 1508ETH     C1 7387   3.187   2.525   3.393
 1508ETH      O 7388   3.278   2.428   3.342
 1508ETH      H 7389   3.080   2.388   3.525
 1508ETH     H1 7390   3.072   2.558   3.575
 1508ETH     H2 7391   3.221   2.465   3.600
 1508ETH     H3 7392   3.101   2.539   3.326
 1508ETH     H4 7393   3.238   2.622   3.402
 1508ETH     H5 7394   3.342   2.408   3.413
 1509ETH      C 7395   5.545   2.044   2.299
 1509ETH     C1 7396   5.560   1.911   2.373
 1509ETH      O 7397   5.569   1.806   2.277
 1509ETH      H 7398   5.630   2.061   2.232
 1509ETH     H1 7399   5.539   2.126   2.371
 1509ETH     H2 7400   5.453   2.043   2.239
 1509ETH     H3 7401   5.651   1.914   2.434
 1509ETH     H4 7402   5.475   1.895   2.440
 1509ETH     H5 7403   5.482   1.797   2.235
 1510ETH      C 7404   2.722   2.596   5.553
 1510ETH     C1 7405   2.662   2.734   5.581
 1510ETH      O 7406   2.636   2.798   5.457
 1510ETH      H 7407   2.653   2.534   5.495
 1510ETH     H1 7408   2.744   2.545   5.647
 1510ETH     H2 7409   2.815   2.607   5.496
 1510ETH     H3 7410   2.569   2.722   5.639
 1510ETH     H4 7411   2.732   2.793   5.641
 1510ETH     H5 7412   2.722   2.810   5.413
   5.80000   5.80000   5.80000
