Task 3 initial system converted from PackMol PDB
 7412
    1CLSA    H1    1   3.567   4.542   0.473
    1CLSA    C1    2   3.505   4.513   0.559
    1CLSA    C2    3   3.410   4.343   0.767
    1CLSA    C3    4   3.595   4.487   0.682
    1CLSA    C4    5   3.423   4.390   0.520
    1CLSA    C5    6   3.328   4.349   0.634
    1CLSA    H2    7   3.397   4.243   0.812
    1CLSA    H3    8   3.438   4.597   0.577
    1CLSA    H4    9   3.490   4.306   0.496
    1CLSA    H5   10   3.255   4.430   0.646
    1CLSA    H6   11   3.696   4.465   0.644
    1CLSA    O1   12   3.348   4.427   0.406
    1CLSA    H7   13   3.287   4.351   0.391
    1CLSA    O2   14   3.258   4.226   0.604
    1CLSA    H8   15   3.203   4.201   0.685
    1CLSA    O3   16   3.551   4.366   0.748
    1CLSA    C6   17   3.610   4.605   0.782
    1CLSA    H9   18   3.665   4.568   0.870
    1CLSA   H10   19   3.672   4.685   0.737
    1CLSA    O4   20   3.485   4.663   0.824
    1CLSA   H11   21   3.425   4.581   0.837
    1CLSA    O5   22   3.362   4.444   0.855
    2CLSB    C7   23   3.331   4.397   0.986
    2CLSB    C8   24   3.378   4.426   1.227
    2CLSB    C9   25   3.411   4.481   1.086
    2CLSB   C10   26   3.178   4.403   1.013
    2CLSB   C11   27   3.225   4.418   1.250
    2CLSB   H12   28   3.518   4.462   1.069
    2CLSB   H13   29   3.424   4.328   1.242
    2CLSB   H14   30   3.146   4.509   1.012
    2CLSB   H15   31   3.191   4.523   1.261
    2CLSB   H16   32   3.363   4.292   0.998
    2CLSB    O6   33   3.154   4.348   1.146
    2CLSB   C12   34   3.092   4.328   0.908
    2CLSB   H17   35   2.990   4.318   0.946
    2CLSB   H18   36   3.087   4.389   0.818
    2CLSB    O7   37   3.145   4.199   0.873
    2CLSB   H19   38   3.115   4.139   0.945
    2CLSB    O8   39   3.433   4.520   1.315
    2CLSB   H20   40   3.435   4.598   1.253
    2CLSB    O9   41   3.382   4.625   1.079
    2CLSB   H21   42   3.418   4.665   0.994
    2CLSB   O10   43   3.204   4.345   1.372
    3CLSA   C13   44   3.078   4.370   1.438
    3CLSA   C14   45   2.908   4.252   1.648
    3CLSA   C15   46   3.110   4.378   1.589
    3CLSA   C16   47   2.986   4.249   1.404
    3CLSA   C17   48   2.866   4.239   1.499
    3CLSA   H22   49   2.965   4.164   1.682
    3CLSA   H23   50   3.032   4.462   1.404
    3CLSA   H24   51   3.047   4.157   1.417
    3CLSA   H25   52   2.796   4.319   1.477
    3CLSA   H26   53   3.173   4.292   1.616
    3CLSA   O11   54   2.935   4.252   1.267
    3CLSA   H27   55   3.011   4.280   1.208
    3CLSA   O12   56   2.804   4.112   1.470
    3CLSA   H28   57   2.789   4.111   1.373
    3CLSA   O13   58   2.987   4.372   1.664
    3CLSA   C18   59   3.188   4.507   1.629
    3CLSA   H29   60   3.127   4.564   1.701
    3CLSA   H30   61   3.280   4.479   1.679
    3CLSA   O14   62   3.216   4.591   1.517
    3CLSA   H31   63   3.310   4.575   1.493
    3CLSA   O15   64   2.791   4.274   1.724
    4CLSB   C19   65   2.801   4.231   1.861
    4CLSB   C20   66   2.878   4.302   2.090
    4CLSB   C21   67   2.889   4.333   1.940
    4CLSB   C22   68   2.655   4.223   1.914
    4CLSB   C23   69   2.730   4.293   2.135
    4CLSB   H32   70   2.994   4.313   1.913
    4CLSB   H33   71   2.930   4.209   2.114
    4CLSB   H34   72   2.604   4.318   1.893
    4CLSB   H35   73   2.689   4.396   2.128
    4CLSB   H36   74   2.846   4.132   1.867
    4CLSB   O16   75   2.655   4.199   2.056
    4CLSB   C24   76   2.576   4.108   1.847
    4CLSB   H37   77   2.471   4.114   1.877
    4CLSB   H38   78   2.580   4.120   1.738
    4CLSB   O17   79   2.628   3.980   1.885
    4CLSB   H39   80   2.601   3.963   1.976
    4CLSB   O18   81   2.939   4.414   2.152
    4CLSB   H40   82   2.927   4.479   2.078
    4CLSB   O19   83   2.852   4.470   1.911
    4CLSB   H41   84   2.862   4.482   1.812
    4CLSB   O20   85   2.728   4.245   2.270
    5CLSA   C25   86   2.603   4.262   2.341
    5CLSA   C26   87   2.459   4.156   2.574
    5CLSA   C27   88   2.643   4.294   2.487
    5CLSA   C28   89   2.523   4.127   2.327
    5CLSA   C29   90   2.412   4.115   2.431
    5CLSA   H42   91   2.526   4.080   2.616
    5CLSA   H43   92   2.543   4.345   2.299
    5CLSA   H44   93   2.595   4.047   2.347
    5CLSA   H45   94   2.330   4.187   2.405
    5CLSA   H46   95   2.716   4.219   2.519
    5CLSA   O21   96   2.460   4.109   2.199
    5CLSA   H47   97   2.526   4.139   2.130
    5CLSA   O22   98   2.363   3.982   2.425
    5CLSA   H48   99   2.344   3.968   2.329
    5CLSA   O23  100   2.526   4.284   2.572
    5CLSA   C30  101   2.706   4.434   2.505
    5CLSA   H49  102   2.642   4.494   2.570
    5CLSA   H50  103   2.803   4.425   2.556
    5CLSA   O24  104   2.724   4.504   2.382
    5CLSA   H51  105   2.817   4.490   2.355
    5CLSA   O25  106   2.344   4.176   2.651
    6CLSB   C31  107   2.354   4.128   2.784
    6CLSB   C32  108   2.419   4.202   3.015
    6CLSB   C33  109   2.433   4.235   2.865
    6CLSB   C34  110   2.208   4.108   2.833
    6CLSB   C35  111   2.272   4.184   3.057
    6CLSB   H52  112   2.540   4.223   2.841
    6CLSB   H53  113   2.478   4.114   3.041
    6CLSB   H54  114   2.151   4.199   2.811
    6CLSB   H55  115   2.223   4.283   3.048
    6CLSB   H56  116   2.407   4.031   2.789
    6CLSB   O26  117   2.206   4.084   2.975
    6CLSB   C36  118   2.141   3.989   2.764
    6CLSB   H57  119   2.034   3.986   2.787
    6CLSB   H58  120   2.149   3.999   2.654
    6CLSB   O27  121   2.201   3.865   2.803
    6CLSB   H59  122   2.175   3.849   2.896
    6CLSB   O28  123   2.470   4.318   3.080
    6CLSB   H60  124   2.458   4.382   3.005
    6CLSB   O29  125   2.390   4.370   2.837
    6CLSB   H61  126   2.395   4.381   2.737
    6CLSB   O30  127   2.266   4.134   3.190
    7CLSA   C37  128   2.139   4.142   3.255
    7CLSA   C38  129   1.993   4.022   3.483
    7CLSA   C39  130   2.173   4.170   3.405
    7CLSA   C40  131   2.065   4.006   3.236
    7CLSA   C41  132   1.951   3.984   3.337
    7CLSA   H62  133   2.062   3.947   3.526
    7CLSA   H63  134   2.077   4.226   3.217
    7CLSA   H64  135   2.138   3.927   3.252
    7CLSA   H65  136   1.867   4.051   3.311
    7CLSA   H66  137   2.248   4.097   3.437
    7CLSA   O31  138   2.004   3.991   3.107
    7CLSA   H67  139   2.072   4.023   3.039
    7CLSA   O32  140   1.911   3.847   3.323
    7CLSA   H68  141   1.892   3.838   3.228
    7CLSA   O33  142   2.052   4.153   3.484
    7CLSA   C42  143   2.231   4.311   3.431
    7CLSA   H69  144   2.165   4.365   3.500
    7CLSA   H70  145   2.330   4.302   3.480
    7CLSA   O34  146   2.245   4.389   3.311
    7CLSA   H71  147   2.339   4.382   3.283
    7CLSA   O35  148   1.874   4.035   3.557
    8CLSB   C43  149   1.884   3.991   3.693
    8CLSB   C44  150   1.964   4.060   3.922
    8CLSB   C45  151   1.977   4.088   3.771
    8CLSB   C46  152   1.738   3.989   3.747
    8CLSB   C47  153   1.816   4.059   3.967
    8CLSB   H72  154   2.080   4.066   3.744
    8CLSB   H73  155   2.014   3.965   3.947
    8CLSB   H74  156   1.693   4.086   3.726
    8CLSB   H75  157   1.780   4.162   3.958
    8CLSB   H76  158   1.926   3.889   3.697
    8CLSB   O36  159   1.738   3.965   3.889
    8CLSB   C48  160   1.654   3.878   3.680
    8CLSB   H77  161   1.548   3.890   3.711
    8CLSB   H78  162   1.657   3.890   3.571
    8CLSB   O37  163   1.699   3.748   3.717
    8CLSB   H79  164   1.678   3.736   3.810
    8CLSB   O38  165   2.031   4.168   3.983
    8CLSB   H80  166   2.022   4.232   3.906
    8CLSB   O39  167   1.948   4.227   3.741
    8CLSB   H81  168   1.957   4.239   3.641
    8CLSB   O40  169   1.811   4.012   4.104
    9CLSA   C49  170   1.688   4.041   4.175
    9CLSA   C50  171   1.535   3.949   4.410
    9CLSA   C51  172   1.732   4.069   4.320
    9CLSA   C52  173   1.596   3.916   4.165
    9CLSA   C53  174   1.481   3.921   4.266
    9CLSA   H82  175   1.594   3.864   4.446
    9CLSA   H83  176   1.636   4.128   4.134
    9CLSA   H84  177   1.658   3.829   4.190
    9CLSA   H85  178   1.414   4.004   4.240
    9CLSA   H86  179   1.800   3.991   4.351
    9CLSA   O41  180   1.535   3.898   4.035
    9CLSA   H87  181   1.604   3.917   3.966
    9CLSA   O42  182   1.411   3.795   4.252
    9CLSA   H88  183   1.405   3.785   4.155
    9CLSA   O43  184   1.615   4.070   4.408
    9CLSA   C54  185   1.806   4.206   4.335
    9CLSA   H89  186   1.746   4.272   4.399
    9CLSA   H90  187   1.902   4.189   4.386
    9CLSA   O44  188   1.829   4.272   4.210
    9CLSA   H91  189   1.919   4.249   4.183
    9CLSA   O45  190   1.423   3.978   4.494
   10CLSB   C55  191   1.445   3.947   4.633
   10CLSB   C56  192   1.366   4.035   4.862
   10CLSB   C57  193   1.389   4.068   4.712
   10CLSB   C58  194   1.367   3.816   4.663
   10CLSB   C59  195   1.289   3.901   4.878
   10CLSB   H92  196   1.463   4.150   4.705
   10CLSB   H93  197   1.464   4.030   4.913
   10CLSB   H94  198   1.265   3.826   4.622
   10CLSB   H95  199   1.187   3.914   4.840
   10CLSB   H96  200   1.550   3.935   4.658
   10CLSB   O46  201   1.359   3.797   4.806
   10CLSB   C60  202   1.432   3.690   4.601
   10CLSB   H97  203   1.370   3.603   4.626
   10CLSB   H98  204   1.434   3.699   4.493
   10CLSB   O47  205   1.564   3.673   4.654
   10CLSB   H99  206   1.554   3.685   4.751
   10CLSB   O48  207   1.292   4.147   4.910
   10CLSB  H100  208   1.244   4.173   4.828
   10CLSB   O49  209   1.266   4.111   4.651
   10CLSB  H101  210   1.282   4.088   4.555
   10CLSB   O50  211   1.289   3.852   5.010
   10CLSB  H102  212   1.351   3.777   5.005
   11SOL     OW  213   4.445   1.146   2.649
   11SOL    HW1  214   4.352   1.142   2.612
   11SOL    HW2  215   4.455   1.227   2.706
   12SOL     OW  216   4.032   1.892   5.460
   12SOL    HW1  217   4.001   1.866   5.551
   12SOL    HW2  218   4.097   1.823   5.426
   13SOL     OW  219   0.203   5.466   5.287
   13SOL    HW1  220   0.243   5.545   5.241
   13SOL    HW2  221   0.231   5.382   5.240
   14SOL     OW  222   1.949   5.338   0.546
   14SOL    HW1  223   1.874   5.380   0.496
   14SOL    HW2  224   2.007   5.288   0.482
   15SOL     OW  225   2.733   5.104   1.697
   15SOL    HW1  226   2.802   5.119   1.625
   15SOL    HW2  227   2.741   5.177   1.766
   16SOL     OW  228   5.471   3.957   4.136
   16SOL    HW1  229   5.538   3.883   4.144
   16SOL    HW2  230   5.478   4.016   4.216
   17SOL     OW  231   3.224   3.004   5.512
   17SOL    HW1  232   3.319   2.974   5.516
   17SOL    HW2  233   3.221   3.099   5.480
   18SOL     OW  234   5.401   5.391   5.047
   18SOL    HW1  235   5.462   5.462   5.011
   18SOL    HW2  236   5.339   5.432   5.114
   19SOL     OW  237   0.711   2.320   2.611
   19SOL    HW1  238   0.792   2.265   2.631
   19SOL    HW2  239   0.724   2.365   2.522
   20SOL     OW  240   1.820   2.643   0.317
   20SOL    HW1  241   1.894   2.576   0.322
   20SOL    HW2  242   1.858   2.734   0.299
   21SOL     OW  243   2.095   4.004   0.856
   21SOL    HW1  244   2.055   3.937   0.793
   21SOL    HW2  245   2.026   4.072   0.880
   22SOL     OW  246   5.115   3.756   2.142
   22SOL    HW1  247   5.048   3.700   2.191
   22SOL    HW2  248   5.067   3.819   2.080
   23SOL     OW  249   1.845   4.026   5.529
   23SOL    HW1  250   1.895   4.076   5.600
   23SOL    HW2  251   1.796   4.092   5.472
   24SOL     OW  252   1.388   1.062   4.402
   24SOL    HW1  253   1.295   1.025   4.406
   24SOL    HW2  254   1.453   0.986   4.398
   25SOL     OW  255   3.778   3.267   0.230
   25SOL    HW1  256   3.843   3.192   0.212
   25SOL    HW2  257   3.828   3.354   0.232
   26SOL     OW  258   3.787   1.457   2.496
   26SOL    HW1  259   3.798   1.391   2.570
   26SOL    HW2  260   3.874   1.502   2.478
   27SOL     OW  261   1.856   1.320   4.241
   27SOL    HW1  262   1.872   1.385   4.316
   27SOL    HW2  263   1.829   1.232   4.280
   28SOL     OW  264   5.343   3.166   2.365
   28SOL    HW1  265   5.395   3.090   2.403
   28SOL    HW2  266   5.284   3.205   2.435
   29SOL     OW  267   5.039   4.973   5.056
   29SOL    HW1  268   5.113   4.905   5.054
   29SOL    HW2  269   5.079   5.065   5.054
   30SOL     OW  270   3.231   2.936   4.362
   30SOL    HW1  271   3.274   3.026   4.363
   30SOL    HW2  272   3.138   2.944   4.328
   31SOL     OW  273   0.500   3.403   3.812
   31SOL    HW1  274   0.598   3.424   3.815
   31SOL    HW2  275   0.449   3.488   3.799
   32SOL     OW  276   3.824   0.723   0.748
   32SOL    HW1  277   3.771   0.641   0.728
   32SOL    HW2  278   3.762   0.798   0.769
   33SOL     OW  279   0.578   0.229   0.951
   33SOL    HW1  280   0.590   0.323   0.983
   33SOL    HW2  281   0.665   0.181   0.956
   34SOL     OW  282   3.714   4.152   2.747
   34SOL    HW1  283   3.658   4.215   2.692
   34SOL    HW2  284   3.653   4.087   2.794
   35SOL     OW  285   0.259   5.118   4.922
   35SOL    HW1  286   0.178   5.154   4.876
   35SOL    HW2  287   0.308   5.193   4.966
   36SOL     OW  288   3.662   2.243   4.845
   36SOL    HW1  289   3.637   2.146   4.855
   36SOL    HW2  290   3.736   2.264   4.908
   37SOL     OW  291   1.362   5.058   1.937
   37SOL    HW1  292   1.386   5.009   1.853
   37SOL    HW2  293   1.366   4.995   2.014
   38SOL     OW  294   2.268   5.276   0.414
   38SOL    HW1  295   2.232   5.370   0.414
   38SOL    HW2  296   2.342   5.269   0.347
   39SOL     OW  297   3.670   0.557   0.150
   39SOL    HW1  298   3.652   0.639   0.205
   39SOL    HW2  299   3.606   0.485   0.177
   40SOL     OW  300   0.220   0.818   2.870
   40SOL    HW1  301   0.257   0.853   2.957
   40SOL    HW2  302   0.160   0.740   2.889
   41SOL     OW  303   1.551   0.511   1.475
   41SOL    HW1  304   1.642   0.479   1.447
   41SOL    HW2  305   1.501   0.434   1.514
   42SOL     OW  306   2.591   3.334   3.395
   42SOL    HW1  307   2.649   3.297   3.468
   42SOL    HW2  308   2.504   3.285   3.393
   43SOL     OW  309   1.784   1.743   5.015
   43SOL    HW1  310   1.754   1.823   5.067
   43SOL    HW2  311   1.854   1.771   4.949
   44SOL     OW  312   0.304   5.331   4.440
   44SOL    HW1  313   0.316   5.360   4.535
   44SOL    HW2  314   0.225   5.270   4.434
   45SOL     OW  315   4.402   0.747   4.496
   45SOL    HW1  316   4.383   0.735   4.594
   45SOL    HW2  317   4.500   0.738   4.481
   46SOL     OW  318   2.302   0.272   0.301
   46SOL    HW1  319   2.245   0.191   0.313
   46SOL    HW2  320   2.249   0.353   0.327
   47SOL     OW  321   3.285   2.827   1.271
   47SOL    HW1  322   3.353   2.896   1.296
   47SOL    HW2  323   3.331   2.740   1.255
   48SOL     OW  324   3.293   3.559   2.305
   48SOL    HW1  325   3.319   3.537   2.211
   48SOL    HW2  326   3.253   3.478   2.348
   49SOL     OW  327   0.226   0.844   5.010
   49SOL    HW1  328   0.266   0.774   5.068
   49SOL    HW2  329   0.173   0.801   4.937
   50SOL     OW  330   3.489   4.739   2.719
   50SOL    HW1  331   3.558   4.749   2.647
   50SOL    HW2  332   3.403   4.710   2.678
   51SOL     OW  333   1.358   5.245   1.581
   51SOL    HW1  334   1.281   5.284   1.631
   51SOL    HW2  335   1.391   5.163   1.629
   52SOL     OW  336   2.559   2.743   0.411
   52SOL    HW1  337   2.590   2.821   0.357
   52SOL    HW2  338   2.534   2.774   0.503
   53SOL     OW  339   1.510   1.481   0.757
   53SOL    HW1  340   1.532   1.579   0.764
   53SOL    HW2  341   1.411   1.470   0.766
   54SOL     OW  342   5.124   1.036   4.245
   54SOL    HW1  343   5.140   0.940   4.270
   54SOL    HW2  344   5.203   1.091   4.270
   55SOL     OW  345   0.350   1.251   4.792
   55SOL    HW1  346   0.311   1.342   4.805
   55SOL    HW2  347   0.390   1.245   4.701
   56SOL     OW  348   1.154   3.120   2.118
   56SOL    HW1  349   1.162   3.194   2.185
   56SOL    HW2  350   1.079   3.141   2.056
   57SOL     OW  351   3.809   0.783   4.035
   57SOL    HW1  352   3.824   0.860   3.973
   57SOL    HW2  353   3.764   0.709   3.986
   58SOL     OW  354   5.122   3.565   2.427
   58SOL    HW1  355   5.026   3.570   2.400
   58SOL    HW2  356   5.151   3.654   2.464
   59SOL     OW  357   3.357   2.591   1.789
   59SOL    HW1  358   3.445   2.636   1.775
   59SOL    HW2  359   3.372   2.492   1.796
   60SOL     OW  360   0.378   4.986   0.545
   60SOL    HW1  361   0.415   4.914   0.603
   60SOL    HW2  362   0.323   4.944   0.473
   61SOL     OW  363   2.342   2.634   0.663
   61SOL    HW1  364   2.374   2.541   0.646
   61SOL    HW2  365   2.419   2.689   0.697
   62SOL     OW  366   5.172   4.383   0.718
   62SOL    HW1  367   5.270   4.378   0.701
   62SOL    HW2  368   5.131   4.294   0.699
   63SOL     OW  369   3.162   4.294   3.445
   63SOL    HW1  370   3.199   4.201   3.447
   63SOL    HW2  371   3.062   4.290   3.440
   64SOL     OW  372   1.982   1.652   2.289
   64SOL    HW1  373   1.909   1.695   2.342
   64SOL    HW2  374   1.957   1.652   2.193
   65SOL     OW  375   4.522   4.460   1.146
   65SOL    HW1  376   4.570   4.432   1.063
   65SOL    HW2  377   4.482   4.550   1.132
   66SOL     OW  378   4.653   3.318   2.847
   66SOL    HW1  379   4.615   3.226   2.851
   66SOL    HW2  380   4.580   3.384   2.830
   67SOL     OW  381   3.661   0.711   1.778
   67SOL    HW1  382   3.666   0.612   1.795
   67SOL    HW2  383   3.744   0.740   1.730
   68SOL     OW  384   5.594   0.334   3.222
   68SOL    HW1  385   5.650   0.331   3.139
   68SOL    HW2  386   5.649   0.370   3.298
   69SOL     OW  387   4.188   2.466   0.371
   69SOL    HW1  388   4.216   2.543   0.314
   69SOL    HW2  389   4.204   2.380   0.322
   70SOL     OW  390   4.715   1.326   2.291
   70SOL    HW1  391   4.627   1.289   2.263
   70SOL    HW2  392   4.787   1.261   2.266
   71SOL     OW  393   4.627   3.851   4.819
   71SOL    HW1  394   4.553   3.906   4.781
   71SOL    HW2  395   4.670   3.799   4.745
   72SOL     OW  396   2.875   5.496   5.556
   72SOL    HW1  397   2.869   5.462   5.650
   72SOL    HW2  398   2.949   5.563   5.550
   73SOL     OW  399   3.118   4.966   5.473
   73SOL    HW1  400   3.123   4.884   5.416
   73SOL    HW2  401   3.104   4.940   5.568
   74SOL     OW  402   5.144   5.090   3.175
   74SOL    HW1  403   5.219   5.155   3.178
   74SOL    HW2  404   5.103   5.092   3.083
   75SOL     OW  405   4.203   2.857   1.390
   75SOL    HW1  406   4.197   2.915   1.308
   75SOL    HW2  407   4.113   2.853   1.434
   76SOL     OW  408   0.237   5.114   2.982
   76SOL    HW1  409   0.150   5.125   2.933
   76SOL    HW2  410   0.270   5.021   2.970
   77SOL     OW  411   0.820   5.439   0.490
   77SOL    HW1  412   0.852   5.533   0.509
   77SOL    HW2  413   0.835   5.383   0.571
   78SOL     OW  414   0.965   0.268   1.238
   78SOL    HW1  415   1.035   0.339   1.230
   78SOL    HW2  416   1.008   0.183   1.270
   79SOL     OW  417   4.764   1.460   1.433
   79SOL    HW1  418   4.837   1.512   1.477
   79SOL    HW2  419   4.701   1.524   1.388
   80SOL     OW  420   2.282   1.837   2.546
   80SOL    HW1  421   2.275   1.935   2.565
   80SOL    HW2  422   2.191   1.800   2.527
   81SOL     OW  423   4.409   2.122   0.878
   81SOL    HW1  424   4.490   2.180   0.891
   81SOL    HW2  425   4.409   2.087   0.784
   82SOL     OW  426   3.485   5.135   1.628
   82SOL    HW1  427   3.549   5.059   1.629
   82SOL    HW2  428   3.393   5.101   1.613
   83SOL     OW  429   1.842   0.197   1.124
   83SOL    HW1  430   1.872   0.275   1.180
   83SOL    HW2  431   1.922   0.150   1.087
   84SOL     OW  432   1.498   4.065   5.257
   84SOL    HW1  433   1.509   4.115   5.343
   84SOL    HW2  434   1.407   4.083   5.220
   85SOL     OW  435   4.469   4.177   0.253
   85SOL    HW1  436   4.561   4.179   0.213
   85SOL    HW2  437   4.413   4.112   0.202
   86SOL     OW  438   3.489   5.273   0.264
   86SOL    HW1  439   3.417   5.332   0.300
   86SOL    HW2  440   3.503   5.196   0.327
   87SOL     OW  441   0.611   4.897   4.240
   87SOL    HW1  442   0.621   4.828   4.312
   87SOL    HW2  443   0.521   4.941   4.249
   88SOL     OW  444   4.339   1.519   1.909
   88SOL    HW1  445   4.247   1.481   1.909
   88SOL    HW2  446   4.333   1.619   1.907
   89SOL     OW  447   5.059   2.044   1.361
   89SOL    HW1  448   5.099   2.106   1.429
   89SOL    HW2  449   5.127   2.022   1.292
   90SOL     OW  450   4.920   3.500   4.689
   90SOL    HW1  451   4.881   3.416   4.651
   90SOL    HW2  452   4.973   3.477   4.771
   91SOL     OW  453   0.682   4.900   0.969
   91SOL    HW1  454   0.747   4.872   1.039
   91SOL    HW2  455   0.710   4.989   0.932
   92SOL     OW  456   4.489   0.697   3.135
   92SOL    HW1  457   4.543   0.757   3.076
   92SOL    HW2  458   4.546   0.620   3.165
   93SOL     OW  459   2.747   3.775   2.871
   93SOL    HW1  460   2.766   3.685   2.911
   93SOL    HW2  461   2.667   3.815   2.916
   94SOL     OW  462   2.421   2.340   5.556
   94SOL    HW1  463   2.341   2.334   5.615
   94SOL    HW2  464   2.487   2.404   5.596
   95SOL     OW  465   1.209   4.446   2.770
   95SOL    HW1  466   1.222   4.352   2.739
   95SOL    HW2  467   1.148   4.447   2.849
   96SOL     OW  468   4.712   4.031   3.196
   96SOL    HW1  469   4.628   4.072   3.160
   96SOL    HW2  470   4.690   3.943   3.240
   97SOL     OW  471   2.926   4.810   4.592
   97SOL    HW1  472   2.829   4.796   4.613
   97SOL    HW2  473   2.960   4.731   4.541
   98SOL     OW  474   3.860   2.926   0.675
   98SOL    HW1  475   3.916   3.009   0.676
   98SOL    HW2  476   3.909   2.854   0.724
   99SOL     OW  477   2.981   1.467   3.151
   99SOL    HW1  478   3.074   1.438   3.130
   99SOL    HW2  479   2.919   1.389   3.140
  100SOL     OW  480   0.236   3.576   3.189
  100SOL    HW1  481   0.157   3.553   3.247
  100SOL    HW2  482   0.225   3.531   3.101
  101SOL     OW  483   1.942   0.242   1.591
  101SOL    HW1  484   2.026   0.251   1.539
  101SOL    HW2  485   1.936   0.150   1.629
  102SOL     OW  486   1.050   2.744   3.183
  102SOL    HW1  487   1.129   2.768   3.240
  102SOL    HW2  488   1.024   2.649   3.200
  103SOL     OW  489   0.916   2.290   3.331
  103SOL    HW1  490   0.966   2.264   3.414
  103SOL    HW2  491   0.977   2.340   3.270
  104SOL     OW  492   3.891   2.992   1.991
  104SOL    HW1  493   3.830   2.913   2.001
  104SOL    HW2  494   3.977   2.972   2.038
  105SOL     OW  495   0.758   5.577   4.547
  105SOL    HW1  496   0.791   5.496   4.596
  105SOL    HW2  497   0.835   5.619   4.498
  106SOL     OW  498   3.744   5.212   3.040
  106SOL    HW1  499   3.691   5.128   3.055
  106SOL    HW2  500   3.683   5.291   3.042
  107SOL     OW  501   0.401   4.994   4.648
  107SOL    HW1  502   0.475   4.946   4.601
  107SOL    HW2  503   0.334   4.928   4.680
  108SOL     OW  504   1.738   1.462   4.520
  108SOL    HW1  505   1.837   1.478   4.524
  108SOL    HW2  506   1.720   1.364   4.520
  109SOL     OW  507   3.438   5.455   0.862
  109SOL    HW1  508   3.348   5.496   0.871
  109SOL    HW2  509   3.430   5.365   0.821
  110SOL     OW  510   2.096   2.335   1.003
  110SOL    HW1  511   2.070   2.427   1.032
  110SOL    HW2  512   2.015   2.287   0.969
  111SOL     OW  513   0.241   2.115   0.410
  111SOL    HW1  514   0.281   2.205   0.391
  111SOL    HW2  515   0.307   2.061   0.462
  112SOL     OW  516   1.115   1.559   2.590
  112SOL    HW1  517   1.213   1.552   2.573
  112SOL    HW2  518   1.100   1.598   2.681
  113SOL     OW  519   4.307   0.440   4.334
  113SOL    HW1  520   4.334   0.447   4.430
  113SOL    HW2  521   4.357   0.364   4.291
  114SOL     OW  522   3.651   1.105   3.176
  114SOL    HW1  523   3.643   1.070   3.270
  114SOL    HW2  524   3.582   1.175   3.161
  115SOL     OW  525   4.223   4.309   3.203
  115SOL    HW1  526   4.323   4.309   3.193
  115SOL    HW2  527   4.191   4.216   3.222
  116SOL     OW  528   4.818   1.323   1.716
  116SOL    HW1  529   4.787   1.349   1.624
  116SOL    HW2  530   4.862   1.401   1.759
  117SOL     OW  531   4.288   3.987   4.457
  117SOL    HW1  532   4.256   4.035   4.376
  117SOL    HW2  533   4.339   4.050   4.516
  118SOL     OW  534   3.795   3.725   3.607
  118SOL    HW1  535   3.797   3.823   3.628
  118SOL    HW2  536   3.723   3.681   3.662
  119SOL     OW  537   5.255   5.003   3.761
  119SOL    HW1  538   5.326   5.040   3.821
  119SOL    HW2  539   5.180   4.967   3.817
  120SOL     OW  540   2.096   4.236   0.246
  120SOL    HW1  541   2.026   4.258   0.314
  120SOL    HW2  542   2.051   4.209   0.161
  121SOL     OW  543   0.915   2.302   3.810
  121SOL    HW1  544   0.818   2.284   3.798
  121SOL    HW2  545   0.948   2.360   3.736
  122SOL     OW  546   2.639   3.876   2.496
  122SOL    HW1  547   2.722   3.931   2.485
  122SOL    HW2  548   2.653   3.787   2.452
  123SOL     OW  549   5.187   5.291   3.717
  123SOL    HW1  550   5.114   5.248   3.664
  123SOL    HW2  551   5.149   5.327   3.802
  124SOL     OW  552   1.307   3.696   0.637
  124SOL    HW1  553   1.338   3.732   0.725
  124SOL    HW2  554   1.387   3.679   0.579
  125SOL     OW  555   3.031   4.866   2.396
  125SOL    HW1  556   3.108   4.802   2.397
  125SOL    HW2  557   2.946   4.815   2.399
  126SOL     OW  558   5.369   2.483   4.346
  126SOL    HW1  559   5.289   2.426   4.362
  126SOL    HW2  560   5.432   2.434   4.286
  127SOL     OW  561   4.552   1.481   2.718
  127SOL    HW1  562   4.649   1.503   2.729
  127SOL    HW2  563   4.497   1.562   2.737
  128SOL     OW  564   0.436   2.286   1.920
  128SOL    HW1  565   0.531   2.254   1.927
  128SOL    HW2  566   0.376   2.220   1.966
  129SOL     OW  567   2.984   3.617   2.521
  129SOL    HW1  568   3.032   3.570   2.447
  129SOL    HW2  569   2.913   3.676   2.482
  130SOL     OW  570   0.201   5.548   2.048
  130SOL    HW1  571   0.292   5.506   2.051
  130SOL    HW2  572   0.208   5.635   1.999
  131SOL     OW  573   5.460   4.036   5.235
  131SOL    HW1  574   5.386   4.080   5.183
  131SOL    HW2  575   5.439   3.939   5.245
  132SOL     OW  576   5.384   2.019   3.871
  132SOL    HW1  577   5.388   1.951   3.944
  132SOL    HW2  578   5.289   2.049   3.860
  133SOL     OW  579   5.614   4.461   2.167
  133SOL    HW1  580   5.542   4.424   2.227
  133SOL    HW2  581   5.586   4.551   2.135
  134SOL     OW  582   4.746   0.352   3.133
  134SOL    HW1  583   4.683   0.295   3.184
  134SOL    HW2  584   4.798   0.409   3.196
  135SOL     OW  585   4.551   4.460   3.039
  135SOL    HW1  586   4.507   4.511   2.966
  135SOL    HW2  587   4.528   4.363   3.029
  136SOL     OW  588   0.458   3.994   0.305
  136SOL    HW1  589   0.400   4.050   0.246
  136SOL    HW2  590   0.416   3.987   0.395
  137SOL     OW  591   1.809   1.581   1.584
  137SOL    HW1  592   1.710   1.573   1.584
  137SOL    HW2  593   1.834   1.678   1.584
  138SOL     OW  594   3.853   4.900   5.240
  138SOL    HW1  595   3.849   4.812   5.193
  138SOL    HW2  596   3.800   4.894   5.325
  139SOL     OW  597   2.964   0.672   5.217
  139SOL    HW1  598   2.888   0.732   5.195
  139SOL    HW2  599   2.948   0.628   5.306
  140SOL     OW  600   0.740   5.210   5.474
  140SOL    HW1  601   0.703   5.165   5.554
  140SOL    HW2  602   0.734   5.309   5.487
  141SOL     OW  603   1.675   3.417   3.224
  141SOL    HW1  604   1.651   3.512   3.203
  141SOL    HW2  605   1.775   3.408   3.220
  142SOL     OW  606   3.196   3.338   1.181
  142SOL    HW1  607   3.269   3.404   1.164
  142SOL    HW2  608   3.109   3.377   1.151
  143SOL     OW  609   4.179   1.489   5.471
  143SOL    HW1  610   4.250   1.428   5.505
  143SOL    HW2  611   4.132   1.532   5.549
  144SOL     OW  612   1.534   5.470   5.014
  144SOL    HW1  613   1.525   5.538   5.087
  144SOL    HW2  614   1.467   5.397   5.028
  145SOL     OW  615   2.188   0.394   0.810
  145SOL    HW1  616   2.212   0.298   0.819
  145SOL    HW2  617   2.256   0.440   0.753
  146SOL     OW  618   0.531   1.172   0.998
  146SOL    HW1  619   0.600   1.228   1.045
  146SOL    HW2  620   0.572   1.085   0.973
  147SOL     OW  621   5.422   2.441   4.614
  147SOL    HW1  622   5.507   2.390   4.604
  147SOL    HW2  623   5.345   2.377   4.616
  148SOL     OW  624   3.308   4.341   3.754
  148SOL    HW1  625   3.399   4.303   3.738
  148SOL    HW2  626   3.317   4.431   3.796
  149SOL     OW  627   2.063   0.221   0.525
  149SOL    HW1  628   2.110   0.285   0.586
  149SOL    HW2  629   2.128   0.150   0.496
  150SOL     OW  630   0.625   0.812   1.162
  150SOL    HW1  631   0.671   0.733   1.203
  150SOL    HW2  632   0.693   0.873   1.122
  151SOL     OW  633   5.037   3.358   1.700
  151SOL    HW1  634   5.097   3.320   1.629
  151SOL    HW2  635   4.984   3.285   1.741
  152SOL     OW  636   0.868   3.720   2.979
  152SOL    HW1  637   0.953   3.688   2.936
  152SOL    HW2  638   0.828   3.644   3.031
  153SOL     OW  639   3.025   1.698   4.511
  153SOL    HW1  640   2.955   1.768   4.525
  153SOL    HW2  641   3.060   1.704   4.417
  154SOL     OW  642   5.016   2.001   4.173
  154SOL    HW1  643   4.996   1.924   4.112
  154SOL    HW2  644   5.086   1.974   4.238
  155SOL     OW  645   3.166   4.031   4.941
  155SOL    HW1  646   3.227   4.034   5.020
  155SOL    HW2  647   3.098   3.958   4.955
  156SOL     OW  648   2.298   4.112   4.096
  156SOL    HW1  649   2.304   4.203   4.136
  156SOL    HW2  650   2.202   4.084   4.092
  157SOL     OW  651   1.738   2.144   2.156
  157SOL    HW1  652   1.652   2.093   2.165
  157SOL    HW2  653   1.717   2.241   2.141
  158SOL     OW  654   0.453   5.650   1.138
  158SOL    HW1  655   0.521   5.588   1.098
  158SOL    HW2  656   0.373   5.597   1.167
  159SOL     OW  657   2.545   4.571   4.172
  159SOL    HW1  658   2.501   4.510   4.237
  159SOL    HW2  659   2.617   4.623   4.218
  160SOL     OW  660   4.329   5.534   3.912
  160SOL    HW1  661   4.296   5.622   3.878
  160SOL    HW2  662   4.421   5.546   3.951
  161SOL     OW  663   2.210   4.927   5.372
  161SOL    HW1  664   2.183   5.012   5.326
  161SOL    HW2  665   2.138   4.901   5.436
  162SOL     OW  666   1.688   4.816   3.306
  162SOL    HW1  667   1.648   4.906   3.323
  162SOL    HW2  668   1.698   4.768   3.393
  163SOL     OW  669   1.024   2.881   4.951
  163SOL    HW1  670   1.093   2.880   4.878
  163SOL    HW2  671   1.061   2.928   5.031
  164SOL     OW  672   4.434   2.167   3.729
  164SOL    HW1  673   4.355   2.228   3.730
  164SOL    HW2  674   4.517   2.222   3.737
  165SOL     OW  675   1.561   4.061   3.132
  165SOL    HW1  676   1.498   3.997   3.087
  165SOL    HW2  677   1.509   4.136   3.172
  166SOL     OW  678   3.800   3.493   1.925
  166SOL    HW1  679   3.858   3.472   2.004
  166SOL    HW2  680   3.853   3.478   1.841
  167SOL     OW  681   4.284   4.418   5.445
  167SOL    HW1  682   4.374   4.455   5.423
  167SOL    HW2  683   4.286   4.381   5.538
  168SOL     OW  684   0.563   0.847   2.589
  168SOL    HW1  685   0.634   0.777   2.580
  168SOL    HW2  686   0.489   0.812   2.647
  169SOL     OW  687   3.638   2.560   5.469
  169SOL    HW1  688   3.604   2.629   5.405
  169SOL    HW2  689   3.730   2.531   5.441
  170SOL     OW  690   1.608   0.695   2.301
  170SOL    HW1  691   1.621   0.599   2.325
  170SOL    HW2  692   1.558   0.741   2.375
  171SOL     OW  693   2.633   2.639   2.917
  171SOL    HW1  694   2.560   2.687   2.868
  171SOL    HW2  695   2.595   2.601   3.002
  172SOL     OW  696   5.467   0.179   4.133
  172SOL    HW1  697   5.370   0.177   4.158
  172SOL    HW2  698   5.495   0.274   4.119
  173SOL     OW  699   2.303   0.179   4.386
  173SOL    HW1  700   2.327   0.150   4.294
  173SOL    HW2  701   2.378   0.158   4.449
  174SOL     OW  702   5.337   0.604   5.372
  174SOL    HW1  703   5.425   0.637   5.337
  174SOL    HW2  704   5.287   0.680   5.414
  175SOL     OW  705   4.407   0.424   0.673
  175SOL    HW1  706   4.427   0.327   0.682
  175SOL    HW2  707   4.363   0.456   0.757
  176SOL     OW  708   3.225   4.815   0.483
  176SOL    HW1  709   3.282   4.827   0.564
  176SOL    HW2  710   3.282   4.783   0.407
  177SOL     OW  711   5.513   0.253   4.443
  177SOL    HW1  712   5.422   0.227   4.475
  177SOL    HW2  713   5.560   0.172   4.408
  178SOL     OW  714   0.269   4.141   3.741
  178SOL    HW1  715   0.254   4.168   3.646
  178SOL    HW2  716   0.366   4.129   3.758
  179SOL     OW  717   0.929   0.495   1.507
  179SOL    HW1  718   0.847   0.470   1.559
  179SOL    HW2  719   0.903   0.512   1.412
  180SOL     OW  720   3.401   1.738   4.015
  180SOL    HW1  721   3.499   1.751   4.030
  180SOL    HW2  722   3.374   1.648   4.051
  181SOL     OW  723   3.191   2.312   0.979
  181SOL    HW1  724   3.256   2.276   1.046
  181SOL    HW2  725   3.106   2.336   1.026
  182SOL     OW  726   3.177   3.775   2.098
  182SOL    HW1  727   3.271   3.780   2.133
  182SOL    HW2  728   3.147   3.679   2.100
  183SOL     OW  729   0.664   1.661   5.225
  183SOL    HW1  730   0.691   1.572   5.187
  183SOL    HW2  731   0.576   1.688   5.186
  184SOL     OW  732   5.607   1.908   5.173
  184SOL    HW1  733   5.634   1.990   5.122
  184SOL    HW2  734   5.537   1.859   5.121
  185SOL     OW  735   4.950   1.981   0.985
  185SOL    HW1  736   5.042   2.013   0.961
  185SOL    HW2  737   4.899   2.056   1.026
  186SOL     OW  738   0.257   5.275   2.142
  186SOL    HW1  739   0.164   5.313   2.138
  186SOL    HW2  740   0.251   5.175   2.140
  187SOL     OW  741   1.648   4.299   1.036
  187SOL    HW1  742   1.569   4.356   1.060
  187SOL    HW2  743   1.731   4.355   1.038
  188SOL     OW  744   0.450   1.559   1.013
  188SOL    HW1  745   0.414   1.466   1.004
  188SOL    HW2  746   0.539   1.556   1.059
  189SOL     OW  747   2.538   3.767   4.540
  189SOL    HW1  748   2.544   3.801   4.447
  189SOL    HW2  749   2.591   3.682   4.548
  190SOL     OW  750   2.946   1.812   2.959
  190SOL    HW1  751   2.878   1.766   2.902
  190SOL    HW2  752   2.919   1.907   2.971
  191SOL     OW  753   4.576   3.686   5.205
  191SOL    HW1  754   4.659   3.743   5.199
  191SOL    HW2  755   4.566   3.634   5.121
  192SOL     OW  756   5.576   1.485   2.860
  192SOL    HW1  757   5.480   1.466   2.840
  192SOL    HW2  758   5.612   1.412   2.920
  193SOL     OW  759   4.749   1.118   1.936
  193SOL    HW1  760   4.714   1.199   1.890
  193SOL    HW2  761   4.756   1.043   1.870
  194SOL     OW  762   3.795   0.940   0.508
  194SOL    HW1  763   3.873   0.901   0.557
  194SOL    HW2  764   3.737   0.866   0.473
  195SOL     OW  765   3.675   5.618   1.427
  195SOL    HW1  766   3.744   5.604   1.498
  195SOL    HW2  767   3.591   5.650   1.469
  196SOL     OW  768   4.309   1.526   3.247
  196SOL    HW1  769   4.313   1.438   3.199
  196SOL    HW2  770   4.384   1.584   3.217
  197SOL     OW  771   1.780   0.695   4.316
  197SOL    HW1  772   1.754   0.633   4.242
  197SOL    HW2  773   1.842   0.765   4.281
  198SOL     OW  774   3.101   4.034   5.412
  198SOL    HW1  775   3.117   3.946   5.369
  198SOL    HW2  776   3.176   4.054   5.474
  199SOL     OW  777   4.967   4.148   4.119
  199SOL    HW1  778   5.054   4.188   4.093
  199SOL    HW2  779   4.983   4.079   4.190
  200SOL     OW  780   4.326   5.306   4.676
  200SOL    HW1  781   4.263   5.228   4.680
  200SOL    HW2  782   4.299   5.367   4.602
  201SOL     OW  783   5.415   1.360   5.273
  201SOL    HW1  784   5.361   1.284   5.309
  201SOL    HW2  785   5.510   1.330   5.263
  202SOL     OW  786   3.165   2.918   2.711
  202SOL    HW1  787   3.068   2.907   2.688
  202SOL    HW2  788   3.173   2.928   2.811
  203SOL     OW  789   2.482   4.163   4.773
  203SOL    HW1  790   2.401   4.212   4.805
  203SOL    HW2  791   2.464   4.065   4.776
  204SOL     OW  792   4.608   3.472   1.493
  204SOL    HW1  793   4.529   3.411   1.480
  204SOL    HW2  794   4.643   3.499   1.404
  205SOL     OW  795   3.815   3.172   4.749
  205SOL    HW1  796   3.770   3.095   4.792
  205SOL    HW2  797   3.914   3.160   4.755
  206SOL     OW  798   2.542   3.688   2.150
  206SOL    HW1  799   2.456   3.729   2.180
  206SOL    HW2  800   2.617   3.725   2.205
  207SOL     OW  801   4.369   5.650   3.378
  207SOL    HW1  802   4.276   5.647   3.415
  207SOL    HW2  803   4.397   5.557   3.354
  208SOL     OW  804   0.840   1.522   2.362
  208SOL    HW1  805   0.772   1.535   2.290
  208SOL    HW2  806   0.826   1.433   2.405
  209SOL     OW  807   1.398   4.843   0.609
  209SOL    HW1  808   1.311   4.800   0.634
  209SOL    HW2  809   1.404   4.851   0.510
  210SOL     OW  810   3.652   4.634   4.169
  210SOL    HW1  811   3.737   4.687   4.179
  210SOL    HW2  812   3.660   4.577   4.086
  211SOL     OW  813   0.659   5.177   4.898
  211SOL    HW1  814   0.639   5.220   4.810
  211SOL    HW2  815   0.689   5.083   4.882
  212SOL     OW  816   5.503   1.027   1.704
  212SOL    HW1  817   5.427   0.966   1.725
  212SOL    HW2  818   5.547   0.996   1.619
  213SOL     OW  819   2.849   0.714   3.270
  213SOL    HW1  820   2.898   0.800   3.257
  213SOL    HW2  821   2.755   0.733   3.299
  214SOL     OW  822   2.134   0.349   4.015
  214SOL    HW1  823   2.131   0.435   4.066
  214SOL    HW2  824   2.198   0.358   3.939
  215SOL     OW  825   2.905   1.882   3.647
  215SOL    HW1  826   2.967   1.888   3.568
  215SOL    HW2  827   2.955   1.842   3.724
  216SOL     OW  828   4.133   3.940   3.562
  216SOL    HW1  829   4.111   4.037   3.558
  216SOL    HW2  830   4.049   3.886   3.563
  217SOL     OW  831   1.081   4.986   3.185
  217SOL    HW1  832   0.990   4.948   3.198
  217SOL    HW2  833   1.114   4.962   3.094
  218SOL     OW  834   1.925   5.274   1.685
  218SOL    HW1  835   2.002   5.211   1.676
  218SOL    HW2  836   1.942   5.354   1.628
  219SOL     OW  837   0.884   1.638   3.177
  219SOL    HW1  838   0.836   1.551   3.176
  219SOL    HW2  839   0.817   1.712   3.183
  220SOL     OW  840   2.603   5.598   0.165
  220SOL    HW1  841   2.624   5.650   0.248
  220SOL    HW2  842   2.670   5.525   0.154
  221SOL     OW  843   2.601   4.962   0.901
  221SOL    HW1  844   2.675   5.025   0.880
  221SOL    HW2  845   2.514   5.011   0.900
  222SOL     OW  846   0.544   1.908   4.049
  222SOL    HW1  847   0.534   1.809   4.052
  222SOL    HW2  848   0.634   1.930   4.012
  223SOL     OW  849   4.421   4.122   3.592
  223SOL    HW1  850   4.436   4.205   3.539
  223SOL    HW2  851   4.504   4.099   3.642
  224SOL     OW  852   3.347   3.388   0.387
  224SOL    HW1  853   3.275   3.457   0.380
  224SOL    HW2  854   3.308   3.298   0.367
  225SOL     OW  855   5.507   2.213   5.115
  225SOL    HW1  856   5.595   2.234   5.158
  225SOL    HW2  857   5.441   2.283   5.141
  226SOL     OW  858   1.700   4.034   2.876
  226SOL    HW1  859   1.759   3.955   2.864
  226SOL    HW2  860   1.605   4.004   2.884
  227SOL     OW  861   0.780   1.421   0.906
  227SOL    HW1  862   0.781   1.324   0.882
  227SOL    HW2  863   0.868   1.445   0.949
  228SOL     OW  864   2.724   3.067   1.158
  228SOL    HW1  865   2.647   3.005   1.172
  228SOL    HW2  866   2.693   3.161   1.167
  229SOL     OW  867   2.602   5.366   0.387
  229SOL    HW1  868   2.530   5.435   0.388
  229SOL    HW2  869   2.690   5.410   0.401
  230SOL     OW  870   0.538   4.513   3.711
  230SOL    HW1  871   0.634   4.534   3.729
  230SOL    HW2  872   0.497   4.587   3.659
  231SOL     OW  873   5.492   0.421   2.605
  231SOL    HW1  874   5.394   0.403   2.608
  231SOL    HW2  875   5.541   0.334   2.609
  232SOL     OW  876   4.469   3.357   1.777
  232SOL    HW1  877   4.396   3.420   1.751
  232SOL    HW2  878   4.556   3.406   1.778
  233SOL     OW  879   3.294   3.722   0.724
  233SOL    HW1  880   3.352   3.719   0.642
  233SOL    HW2  881   3.327   3.653   0.789
  234SOL     OW  882   0.524   1.871   2.377
  234SOL    HW1  883   0.589   1.940   2.407
  234SOL    HW2  884   0.452   1.861   2.446
  235SOL     OW  885   0.824   4.900   4.968
  235SOL    HW1  886   0.900   4.938   5.021
  235SOL    HW2  887   0.842   4.804   4.949
  236SOL     OW  888   0.248   1.130   5.271
  236SOL    HW1  889   0.307   1.211   5.270
  236SOL    HW2  890   0.303   1.049   5.249
  237SOL     OW  891   1.973   3.121   0.974
  237SOL    HW1  892   1.881   3.155   0.955
  237SOL    HW2  893   2.006   3.071   0.893
  238SOL     OW  894   5.567   4.685   1.114
  238SOL    HW1  895   5.611   4.771   1.086
  238SOL    HW2  896   5.623   4.640   1.183
  239SOL     OW  897   0.949   3.322   5.647
  239SOL    HW1  898   1.000   3.402   5.614
  239SOL    HW2  899   0.998   3.239   5.619
  240SOL     OW  900   2.145   1.863   2.123
  240SOL    HW1  901   2.141   1.845   2.024
  240SOL    HW2  902   2.055   1.894   2.154
  241SOL     OW  903   4.285   5.177   2.091
  241SOL    HW1  904   4.311   5.268   2.060
  241SOL    HW2  905   4.206   5.146   2.039
  242SOL     OW  906   4.083   3.406   3.367
  242SOL    HW1  907   4.155   3.343   3.397
  242SOL    HW2  908   4.046   3.375   3.280
  243SOL     OW  909   3.479   2.006   4.057
  243SOL    HW1  910   3.526   2.094   4.061
  243SOL    HW2  911   3.478   1.965   4.148
  244SOL     OW  912   3.616   1.006   2.254
  244SOL    HW1  913   3.669   0.924   2.232
  244SOL    HW2  914   3.599   1.009   2.353
  245SOL     OW  915   3.420   2.731   3.062
  245SOL    HW1  916   3.471   2.664   3.116
  245SOL    HW2  917   3.430   2.821   3.103
  246SOL     OW  918   5.529   4.057   5.595
  246SOL    HW1  919   5.616   4.036   5.551
  246SOL    HW2  920   5.540   4.141   5.650
  247SOL     OW  921   1.899   3.216   2.198
  247SOL    HW1  922   1.880   3.274   2.276
  247SOL    HW2  923   1.852   3.128   2.209
  248SOL     OW  924   3.042   0.737   2.934
  248SOL    HW1  925   2.956   0.688   2.924
  248SOL    HW2  926   3.066   0.779   2.846
  249SOL     OW  927   4.717   3.987   5.026
  249SOL    HW1  928   4.729   4.067   5.085
  249SOL    HW2  929   4.727   4.015   4.931
  250SOL     OW  930   2.866   2.773   1.618
  250SOL    HW1  931   2.909   2.696   1.666
  250SOL    HW2  932   2.924   2.854   1.628
  251SOL     OW  933   1.609   1.839   0.550
  251SOL    HW1  934   1.541   1.885   0.606
  251SOL    HW2  935   1.701   1.862   0.584
  252SOL     OW  936   2.012   4.407   2.882
  252SOL    HW1  937   1.924   4.391   2.926
  252SOL    HW2  938   2.010   4.367   2.790
  253SOL     OW  939   5.243   3.209   3.344
  253SOL    HW1  940   5.273   3.158   3.424
  253SOL    HW2  941   5.260   3.155   3.262
  254SOL     OW  942   4.788   1.265   4.140
  254SOL    HW1  943   4.834   1.201   4.201
  254SOL    HW2  944   4.725   1.322   4.194
  255SOL     OW  945   2.513   0.922   4.558
  255SOL    HW1  946   2.426   0.873   4.550
  255SOL    HW2  947   2.494   1.019   4.577
  256SOL     OW  948   1.904   3.887   4.573
  256SOL    HW1  949   1.866   3.832   4.499
  256SOL    HW2  950   1.876   3.983   4.561
  257SOL     OW  951   4.704   0.340   2.861
  257SOL    HW1  952   4.730   0.285   2.782
  257SOL    HW2  953   4.771   0.412   2.875
  258SOL     OW  954   4.364   2.917   2.889
  258SOL    HW1  955   4.434   2.980   2.857
  258SOL    HW2  956   4.352   2.928   2.988
  259SOL     OW  957   5.574   4.453   3.323
  259SOL    HW1  958   5.588   4.549   3.347
  259SOL    HW2  959   5.478   4.429   3.338
  260SOL     OW  960   1.246   5.339   1.188
  260SOL    HW1  961   1.216   5.286   1.267
  260SOL    HW2  962   1.193   5.423   1.183
  261SOL     OW  963   1.051   1.297   0.986
  261SOL    HW1  964   1.025   1.311   1.081
  261SOL    HW2  965   1.149   1.277   0.982
  262SOL     OW  966   5.428   3.038   1.252
  262SOL    HW1  967   5.523   3.049   1.224
  262SOL    HW2  968   5.384   3.128   1.256
  263SOL     OW  969   4.185   1.708   2.082
  263SOL    HW1  970   4.154   1.715   2.176
  263SOL    HW2  971   4.144   1.782   2.028
  264SOL     OW  972   1.376   4.215   1.127
  264SOL    HW1  973   1.311   4.151   1.084
  264SOL    HW2  974   1.357   4.307   1.094
  265SOL     OW  975   4.749   5.531   1.113
  265SOL    HW1  976   4.769   5.603   1.181
  265SOL    HW2  977   4.653   5.538   1.087
  266SOL     OW  978   3.945   3.295   3.716
  266SOL    HW1  979   3.947   3.375   3.655
  266SOL    HW2  980   4.028   3.295   3.772
  267SOL     OW  981   2.153   1.871   1.788
  267SOL    HW1  982   2.238   1.835   1.827
  267SOL    HW2  983   2.078   1.809   1.812
  268SOL     OW  984   3.657   2.622   0.742
  268SOL    HW1  985   3.656   2.705   0.685
  268SOL    HW2  986   3.741   2.620   0.795
  269SOL     OW  987   3.443   4.006   0.752
  269SOL    HW1  988   3.538   3.992   0.779
  269SOL    HW2  989   3.398   3.917   0.743
  270SOL     OW  990   4.038   1.991   3.246
  270SOL    HW1  991   3.960   2.046   3.216
  270SOL    HW2  992   4.007   1.897   3.263
  271SOL     OW  993   5.156   0.996   0.612
  271SOL    HW1  994   5.160   1.093   0.637
  271SOL    HW2  995   5.101   0.947   0.680
  272SOL     OW  996   3.021   3.715   0.564
  272SOL    HW1  997   3.085   3.776   0.517
  272SOL    HW2  998   2.986   3.760   0.646
  273SOL     OW  999   2.745   1.493   0.232
  273SOL    HW1 1000   2.845   1.489   0.227
  273SOL    HW2 1001   2.717   1.589   0.235
  274SOL     OW 1002   1.768   4.889   1.938
  274SOL    HW1 1003   1.736   4.976   1.901
  274SOL    HW2 1004   1.855   4.865   1.893
  275SOL     OW 1005   4.759   2.572   0.889
  275SOL    HW1 1006   4.803   2.515   0.959
  275SOL    HW2 1007   4.796   2.665   0.895
  276SOL     OW 1008   3.326   5.414   3.169
  276SOL    HW1 1009   3.419   5.439   3.141
  276SOL    HW2 1010   3.263   5.434   3.094
  277SOL     OW 1011   1.183   2.760   1.233
  277SOL    HW1 1012   1.259   2.817   1.264
  277SOL    HW2 1013   1.148   2.708   1.310
  278SOL     OW 1014   4.976   2.956   4.827
  278SOL    HW1 1015   5.071   2.934   4.850
  278SOL    HW2 1016   4.949   3.040   4.874
  279SOL     OW 1017   1.040   3.328   2.851
  279SOL    HW1 1018   0.987   3.400   2.895
  279SOL    HW2 1019   1.069   3.262   2.921
  280SOL     OW 1020   1.357   5.074   3.415
  280SOL    HW1 1021   1.341   5.135   3.337
  280SOL    HW2 1022   1.418   5.119   3.480
  281SOL     OW 1023   1.777   1.636   2.698
  281SOL    HW1 1024   1.864   1.615   2.655
  281SOL    HW2 1025   1.717   1.556   2.692
  282SOL     OW 1026   1.699   3.619   4.242
  282SOL    HW1 1027   1.649   3.555   4.184
  282SOL    HW2 1028   1.792   3.630   4.207
  283SOL     OW 1029   4.581   3.484   4.554
  283SOL    HW1 1030   4.491   3.452   4.585
  283SOL    HW2 1031   4.577   3.583   4.538
  284SOL     OW 1032   2.148   2.286   1.535
  284SOL    HW1 1033   2.085   2.292   1.457
  284SOL    HW2 1034   2.186   2.377   1.553
  285SOL     OW 1035   2.518   3.714   5.555
  285SOL    HW1 1036   2.495   3.659   5.474
  285SOL    HW2 1037   2.597   3.770   5.534
  286SOL     OW 1038   4.001   4.734   4.885
  286SOL    HW1 1039   4.027   4.652   4.936
  286SOL    HW2 1040   3.955   4.798   4.947
  287SOL     OW 1041   2.807   2.681   1.123
  287SOL    HW1 1042   2.868   2.601   1.120
  287SOL    HW2 1043   2.712   2.649   1.125
  288SOL     OW 1044   0.966   0.977   2.670
  288SOL    HW1 1045   0.871   0.978   2.638
  288SOL    HW2 1046   0.969   0.942   2.764
  289SOL     OW 1047   1.540   3.223   5.355
  289SOL    HW1 1048   1.477   3.294   5.386
  289SOL    HW2 1049   1.555   3.158   5.429
  290SOL     OW 1050   4.146   5.631   3.080
  290SOL    HW1 1051   4.181   5.650   2.988
  290SOL    HW2 1052   4.121   5.535   3.087
  291SOL     OW 1053   3.599   4.432   2.623
  291SOL    HW1 1054   3.696   4.415   2.610
  291SOL    HW2 1055   3.581   4.530   2.619
  292SOL     OW 1056   1.489   2.431   0.578
  292SOL    HW1 1057   1.577   2.427   0.626
  292SOL    HW2 1058   1.492   2.502   0.508
  293SOL     OW 1059   1.204   3.024   0.449
  293SOL    HW1 1060   1.219   3.024   0.350
  293SOL    HW2 1061   1.206   2.929   0.482
  294SOL     OW 1062   3.641   1.860   3.657
  294SOL    HW1 1063   3.592   1.821   3.579
  294SOL    HW2 1064   3.737   1.831   3.653
  295SOL     OW 1065   1.829   5.144   4.488
  295SOL    HW1 1066   1.764   5.069   4.503
  295SOL    HW2 1067   1.850   5.149   4.391
  296SOL     OW 1068   2.060   1.013   5.540
  296SOL    HW1 1069   2.010   1.068   5.473
  296SOL    HW2 1070   2.003   0.936   5.569
  297SOL     OW 1071   0.527   4.763   2.110
  297SOL    HW1 1072   0.623   4.751   2.137
  297SOL    HW2 1073   0.514   4.723   2.019
  298SOL     OW 1074   0.477   2.698   2.356
  298SOL    HW1 1075   0.574   2.713   2.339
  298SOL    HW2 1076   0.427   2.782   2.335
  299SOL     OW 1077   4.046   5.650   3.440
  299SOL    HW1 1078   4.036   5.591   3.360
  299SOL    HW2 1079   4.077   5.595   3.518
  300SOL     OW 1080   5.439   4.357   5.548
  300SOL    HW1 1081   5.498   4.383   5.625
  300SOL    HW2 1082   5.451   4.424   5.474
  301SOL     OW 1083   3.905   4.718   1.650
  301SOL    HW1 1084   3.954   4.713   1.738
  301SOL    HW2 1085   3.814   4.679   1.661
  302SOL     OW 1086   1.832   4.324   3.216
  302SOL    HW1 1087   1.797   4.257   3.281
  302SOL    HW2 1088   1.859   4.277   3.131
  303SOL     OW 1089   4.825   3.830   2.441
  303SOL    HW1 1090   4.831   3.820   2.342
  303SOL    HW2 1091   4.847   3.743   2.484
  304SOL     OW 1092   3.990   3.669   1.732
  304SOL    HW1 1093   3.923   3.733   1.694
  304SOL    HW2 1094   3.981   3.580   1.686
  305SOL     OW 1095   1.237   5.066   5.644
  305SOL    HW1 1096   1.152   5.037   5.599
  305SOL    HW2 1097   1.293   5.117   5.579
  306SOL     OW 1098   3.314   3.766   3.351
  306SOL    HW1 1099   3.408   3.733   3.353
  306SOL    HW2 1100   3.293   3.803   3.260
  307SOL     OW 1101   3.112   1.858   4.928
  307SOL    HW1 1102   3.157   1.769   4.931
  307SOL    HW2 1103   3.013   1.845   4.926
  308SOL     OW 1104   0.349   2.403   1.456
  308SOL    HW1 1105   0.318   2.482   1.509
  308SOL    HW2 1106   0.311   2.319   1.497
  309SOL     OW 1107   4.283   4.722   2.688
  309SOL    HW1 1108   4.380   4.707   2.672
  309SOL    HW2 1109   4.230   4.657   2.634
  310SOL     OW 1110   4.437   3.413   3.307
  310SOL    HW1 1111   4.365   3.480   3.292
  310SOL    HW2 1112   4.399   3.321   3.297
  311SOL     OW 1113   0.375   3.839   4.332
  311SOL    HW1 1114   0.302   3.835   4.401
  311SOL    HW2 1115   0.452   3.892   4.368
  312SOL     OW 1116   1.631   1.108   3.796
  312SOL    HW1 1117   1.536   1.127   3.818
  312SOL    HW2 1118   1.653   1.014   3.823
  313SOL     OW 1119   1.531   2.448   2.063
  313SOL    HW1 1120   1.562   2.399   1.982
  313SOL    HW2 1121   1.611   2.478   2.115
  314SOL     OW 1122   3.231   4.071   4.627
  314SOL    HW1 1123   3.311   4.048   4.572
  314SOL    HW2 1124   3.154   4.014   4.599
  315SOL     OW 1125   3.867   1.053   1.832
  315SOL    HW1 1126   3.773   1.019   1.832
  315SOL    HW2 1127   3.930   0.976   1.826
  316SOL     OW 1128   4.543   4.413   3.649
  316SOL    HW1 1129   4.444   4.398   3.654
  316SOL    HW2 1130   4.562   4.490   3.587
  317SOL     OW 1131   2.555   0.551   5.421
  317SOL    HW1 1132   2.493   0.521   5.349
  317SOL    HW2 1133   2.507   0.613   5.483
  318SOL     OW 1134   3.311   0.715   2.563
  318SOL    HW1 1135   3.370   0.795   2.550
  318SOL    HW2 1136   3.216   0.745   2.565
  319SOL     OW 1137   3.115   1.823   2.769
  319SOL    HW1 1138   3.156   1.746   2.721
  319SOL    HW2 1139   3.018   1.829   2.744
  320SOL     OW 1140   4.295   0.240   3.707
  320SOL    HW1 1141   4.321   0.166   3.769
  320SOL    HW2 1142   4.334   0.326   3.742
  321SOL     OW 1143   4.620   5.575   1.445
  321SOL    HW1 1144   4.705   5.595   1.396
  321SOL    HW2 1145   4.626   5.483   1.485
  322SOL     OW 1146   3.201   0.964   3.262
  322SOL    HW1 1147   3.184   0.886   3.321
  322SOL    HW2 1148   3.300   0.972   3.245
  323SOL     OW 1149   2.613   3.119   4.388
  323SOL    HW1 1150   2.553   3.174   4.330
  323SOL    HW2 1151   2.559   3.079   4.462
  324SOL     OW 1152   3.300   2.668   0.991
  324SOL    HW1 1153   3.205   2.677   0.962
  324SOL    HW2 1154   3.339   2.759   1.004
  325SOL     OW 1155   0.466   1.386   2.019
  325SOL    HW1 1156   0.422   1.297   2.008
  325SOL    HW2 1157   0.518   1.407   1.936
  326SOL     OW 1158   5.276   2.906   3.991
  326SOL    HW1 1159   5.340   2.829   3.980
  326SOL    HW2 1160   5.309   2.983   3.937
  327SOL     OW 1161   2.379   4.566   0.708
  327SOL    HW1 1162   2.384   4.522   0.618
  327SOL    HW2 1163   2.343   4.658   0.697
  328SOL     OW 1164   1.066   3.990   0.745
  328SOL    HW1 1165   1.018   3.967   0.660
  328SOL    HW2 1166   1.110   4.079   0.735
  329SOL     OW 1167   5.058   4.366   0.991
  329SOL    HW1 1168   5.044   4.306   1.070
  329SOL    HW2 1169   4.972   4.414   0.971
  330SOL     OW 1170   1.477   5.552   1.393
  330SOL    HW1 1171   1.453   5.455   1.399
  330SOL    HW2 1172   1.400   5.607   1.427
  331SOL     OW 1173   2.583   0.484   0.523
  331SOL    HW1 1174   2.681   0.506   0.527
  331SOL    HW2 1175   2.531   0.569   0.518
  332SOL     OW 1176   4.145   0.928   1.306
  332SOL    HW1 1177   4.167   0.840   1.347
  332SOL    HW2 1178   4.062   0.965   1.348
  333SOL     OW 1179   4.857   4.703   4.293
  333SOL    HW1 1180   4.945   4.665   4.322
  333SOL    HW2 1181   4.864   4.803   4.292
  334SOL     OW 1182   0.763   1.605   2.900
  334SOL    HW1 1183   0.750   1.604   2.801
  334SOL    HW2 1184   0.861   1.603   2.920
  335SOL     OW 1185   1.215   1.265   1.982
  335SOL    HW1 1186   1.205   1.170   1.954
  335SOL    HW2 1187   1.125   1.304   1.999
  336SOL     OW 1188   2.508   5.301   4.263
  336SOL    HW1 1189   2.521   5.386   4.212
  336SOL    HW2 1190   2.472   5.322   4.353
  337SOL     OW 1191   4.245   0.582   1.216
  337SOL    HW1 1192   4.308   0.506   1.232
  337SOL    HW2 1193   4.236   0.635   1.301
  338SOL     OW 1194   4.512   5.612   0.728
  338SOL    HW1 1195   4.597   5.575   0.691
  338SOL    HW2 1196   4.464   5.539   0.778
  339SOL     OW 1197   3.250   0.949   4.490
  339SOL    HW1 1198   3.216   1.014   4.422
  339SOL    HW2 1199   3.350   0.944   4.484
  340SOL     OW 1200   0.749   1.664   5.641
  340SOL    HW1 1201   0.649   1.663   5.650
  340SOL    HW2 1202   0.782   1.570   5.637
  341SOL     OW 1203   2.213   0.208   1.340
  341SOL    HW1 1204   2.299   0.157   1.336
  341SOL    HW2 1205   2.233   0.306   1.343
  342SOL     OW 1206   1.217   0.431   0.150
  342SOL    HW1 1207   1.268   0.448   0.234
  342SOL    HW2 1208   1.121   0.457   0.165
  343SOL     OW 1209   2.126   0.341   2.923
  343SOL    HW1 1210   2.167   0.418   2.973
  343SOL    HW2 1211   2.041   0.372   2.880
  344SOL     OW 1212   1.338   4.244   4.271
  344SOL    HW1 1213   1.277   4.168   4.290
  344SOL    HW2 1214   1.433   4.217   4.291
  345SOL     OW 1215   1.706   1.025   4.180
  345SOL    HW1 1216   1.652   0.978   4.110
  345SOL    HW2 1217   1.702   0.972   4.265
  346SOL     OW 1218   4.570   2.032   1.918
  346SOL    HW1 1219   4.611   2.113   1.875
  346SOL    HW2 1220   4.480   2.057   1.955
  347SOL     OW 1221   4.601   3.922   2.670
  347SOL    HW1 1222   4.520   3.947   2.615
  347SOL    HW2 1223   4.572   3.892   2.760
  348SOL     OW 1224   5.219   2.237   0.861
  348SOL    HW1 1225   5.231   2.304   0.935
  348SOL    HW2 1226   5.235   2.145   0.897
  349SOL     OW 1227   5.587   4.708   2.669
  349SOL    HW1 1228   5.551   4.778   2.608
  349SOL    HW2 1229   5.512   4.650   2.702
  350SOL     OW 1230   2.721   0.547   1.828
  350SOL    HW1 1231   2.791   0.597   1.878
  350SOL    HW2 1232   2.764   0.471   1.778
  351SOL     OW 1233   5.023   4.820   2.998
  351SOL    HW1 1234   4.930   4.790   3.018
  351SOL    HW2 1235   5.031   4.837   2.900
  352SOL     OW 1236   1.544   3.643   2.038
  352SOL    HW1 1237   1.454   3.668   2.002
  352SOL    HW2 1238   1.590   3.725   2.073
  353SOL     OW 1239   2.795   3.857   1.742
  353SOL    HW1 1240   2.893   3.843   1.727
  353SOL    HW2 1241   2.768   3.810   1.826
  354SOL     OW 1242   4.759   4.660   3.378
  354SOL    HW1 1243   4.804   4.580   3.339
  354SOL    HW2 1244   4.663   4.638   3.395
  355SOL     OW 1245   2.837   1.884   1.202
  355SOL    HW1 1246   2.922   1.877   1.254
  355SOL    HW2 1247   2.856   1.870   1.105
  356SOL     OW 1248   3.850   3.860   4.466
  356SOL    HW1 1249   3.791   3.930   4.506
  356SOL    HW2 1250   3.796   3.800   4.407
  357SOL     OW 1251   4.969   2.689   2.828
  357SOL    HW1 1252   4.997   2.644   2.743
  357SOL    HW2 1253   4.894   2.753   2.808
  358SOL     OW 1254   4.735   0.216   5.193
  358SOL    HW1 1255   4.708   0.280   5.122
  358SOL    HW2 1256   4.827   0.182   5.174
  359SOL     OW 1257   1.973   0.801   0.381
  359SOL    HW1 1258   1.941   0.738   0.452
  359SOL    HW2 1259   1.993   0.890   0.422
  360SOL     OW 1260   2.426   3.719   4.253
  360SOL    HW1 1261   2.504   3.707   4.192
  360SOL    HW2 1262   2.394   3.814   4.247
  361SOL     OW 1263   3.906   0.440   4.800
  361SOL    HW1 1264   3.969   0.448   4.723
  361SOL    HW2 1265   3.851   0.523   4.806
  362SOL     OW 1266   4.171   0.395   3.557
  362SOL    HW1 1267   4.191   0.487   3.525
  362SOL    HW2 1268   4.092   0.398   3.618
  363SOL     OW 1269   3.798   2.728   1.362
  363SOL    HW1 1270   3.804   2.776   1.450
  363SOL    HW2 1271   3.720   2.764   1.311
  364SOL     OW 1272   3.816   1.259   3.400
  364SOL    HW1 1273   3.914   1.276   3.396
  364SOL    HW2 1274   3.799   1.161   3.397
  365SOL     OW 1275   5.358   4.584   1.725
  365SOL    HW1 1276   5.385   4.634   1.808
  365SOL    HW2 1277   5.324   4.494   1.751
  366SOL     OW 1278   0.531   1.027   0.385
  366SOL    HW1 1279   0.629   1.005   0.387
  366SOL    HW2 1280   0.520   1.127   0.383
  367SOL     OW 1281   4.666   4.374   0.440
  367SOL    HW1 1282   4.664   4.405   0.344
  367SOL    HW2 1283   4.713   4.286   0.445
  368SOL     OW 1284   0.806   2.129   4.628
  368SOL    HW1 1285   0.744   2.052   4.644
  368SOL    HW2 1286   0.896   2.093   4.602
  369SOL     OW 1287   3.127   1.020   5.057
  369SOL    HW1 1288   3.203   0.961   5.083
  369SOL    HW2 1289   3.162   1.109   5.030
  370SOL     OW 1290   0.283   4.711   3.720
  370SOL    HW1 1291   0.288   4.791   3.780
  370SOL    HW2 1292   0.195   4.665   3.736
  371SOL     OW 1293   0.262   5.073   1.844
  371SOL    HW1 1294   0.247   4.997   1.780
  371SOL    HW2 1295   0.360   5.084   1.859
  372SOL     OW 1296   0.238   2.742   2.761
  372SOL    HW1 1297   0.163   2.808   2.761
  372SOL    HW2 1298   0.201   2.649   2.760
  373SOL     OW 1299   5.012   1.306   5.239
  373SOL    HW1 1300   4.929   1.249   5.243
  373SOL    HW2 1301   5.092   1.246   5.240
  374SOL     OW 1302   2.912   4.612   0.738
  374SOL    HW1 1303   2.960   4.629   0.824
  374SOL    HW2 1304   2.897   4.700   0.691
  375SOL     OW 1305   4.179   0.996   3.221
  375SOL    HW1 1306   4.126   1.079   3.239
  375SOL    HW2 1307   4.273   1.020   3.199
  376SOL     OW 1308   2.594   2.200   0.524
  376SOL    HW1 1309   2.693   2.188   0.516
  376SOL    HW2 1310   2.551   2.112   0.544
  377SOL     OW 1311   3.528   3.906   3.726
  377SOL    HW1 1312   3.453   3.970   3.709
  377SOL    HW2 1313   3.494   3.813   3.715
  378SOL     OW 1314   2.034   0.446   3.664
  378SOL    HW1 1315   2.102   0.519   3.664
  378SOL    HW2 1316   1.943   0.487   3.664
  379SOL     OW 1317   4.451   3.749   3.155
  379SOL    HW1 1318   4.442   3.762   3.056
  379SOL    HW2 1319   4.367   3.710   3.191
  380SOL     OW 1320   5.367   5.250   2.036
  380SOL    HW1 1321   5.401   5.335   2.076
  380SOL    HW2 1322   5.437   5.179   2.044
  381SOL     OW 1323   5.418   5.074   0.276
  381SOL    HW1 1324   5.384   5.157   0.233
  381SOL    HW2 1325   5.464   5.097   0.362
  382SOL     OW 1326   4.202   4.558   3.826
  382SOL    HW1 1327   4.103   4.555   3.812
  382SOL    HW2 1328   4.233   4.653   3.820
  383SOL     OW 1329   1.465   1.195   1.815
  383SOL    HW1 1330   1.525   1.141   1.755
  383SOL    HW2 1331   1.405   1.133   1.865
  384SOL     OW 1332   3.479   1.270   2.790
  384SOL    HW1 1333   3.509   1.175   2.786
  384SOL    HW2 1334   3.388   1.275   2.830
  385SOL     OW 1335   4.785   3.915   5.347
  385SOL    HW1 1336   4.843   3.874   5.417
  385SOL    HW2 1337   4.692   3.926   5.384
  386SOL     OW 1338   2.353   0.904   2.718
  386SOL    HW1 1339   2.425   0.942   2.776
  386SOL    HW2 1340   2.280   0.867   2.776
  387SOL     OW 1341   5.290   4.431   3.596
  387SOL    HW1 1342   5.305   4.443   3.694
  387SOL    HW2 1343   5.278   4.333   3.577
  388SOL     OW 1344   5.370   2.300   2.648
  388SOL    HW1 1345   5.467   2.273   2.645
  388SOL    HW2 1346   5.364   2.399   2.657
  389SOL     OW 1347   5.588   2.837   2.766
  389SOL    HW1 1348   5.540   2.913   2.812
  389SOL    HW2 1349   5.649   2.875   2.696
  390SOL     OW 1350   2.854   3.490   4.077
  390SOL    HW1 1351   2.847   3.555   4.152
  390SOL    HW2 1352   2.764   3.480   4.034
  391SOL     OW 1353   2.004   1.026   1.205
  391SOL    HW1 1354   2.042   1.050   1.294
  391SOL    HW2 1355   2.066   0.963   1.159
  392SOL     OW 1356   0.980   1.399   4.547
  392SOL    HW1 1357   1.048   1.350   4.602
  392SOL    HW2 1358   0.900   1.418   4.604
  393SOL     OW 1359   4.066   2.003   2.836
  393SOL    HW1 1360   4.061   1.960   2.926
  393SOL    HW2 1361   4.110   2.093   2.844
  394SOL     OW 1362   5.136   3.766   4.340
  394SOL    HW1 1363   5.179   3.856   4.350
  394SOL    HW2 1364   5.194   3.697   4.384
  395SOL     OW 1365   1.335   3.166   3.908
  395SOL    HW1 1366   1.286   3.245   3.943
  395SOL    HW2 1367   1.271   3.109   3.855
  396SOL     OW 1368   2.800   2.614   3.435
  396SOL    HW1 1369   2.738   2.642   3.509
  396SOL    HW2 1370   2.791   2.516   3.420
  397SOL     OW 1371   3.473   1.463   3.173
  397SOL    HW1 1372   3.373   1.465   3.167
  397SOL    HW2 1373   3.505   1.550   3.209
  398SOL     OW 1374   1.402   0.890   3.368
  398SOL    HW1 1375   1.423   0.876   3.271
  398SOL    HW2 1376   1.349   0.973   3.379
  399SOL     OW 1377   1.606   0.616   3.142
  399SOL    HW1 1378   1.597   0.675   3.062
  399SOL    HW2 1379   1.533   0.548   3.140
  400SOL     OW 1380   0.513   2.212   5.369
  400SOL    HW1 1381   0.482   2.307   5.367
  400SOL    HW2 1382   0.433   2.152   5.374
  401SOL     OW 1383   0.999   5.120   1.269
  401SOL    HW1 1384   1.097   5.100   1.270
  401SOL    HW2 1385   0.948   5.034   1.269
  402SOL     OW 1386   2.314   1.171   5.539
  402SOL    HW1 1387   2.231   1.210   5.501
  402SOL    HW2 1388   2.290   1.103   5.609
  403SOL     OW 1389   3.456   3.591   4.169
  403SOL    HW1 1390   3.442   3.571   4.266
  403SOL    HW2 1391   3.448   3.690   4.155
  404SOL     OW 1392   4.756   4.328   2.089
  404SOL    HW1 1393   4.849   4.352   2.061
  404SOL    HW2 1394   4.757   4.299   2.184
  405SOL     OW 1395   2.305   2.430   4.853
  405SOL    HW1 1396   2.365   2.376   4.912
  405SOL    HW2 1397   2.237   2.476   4.909
  406SOL     OW 1398   2.561   1.789   2.611
  406SOL    HW1 1399   2.537   1.692   2.612
  406SOL    HW2 1400   2.660   1.799   2.608
  407SOL     OW 1401   2.391   0.317   1.141
  407SOL    HW1 1402   2.427   0.409   1.124
  407SOL    HW2 1403   2.293   0.317   1.124
  408SOL     OW 1404   3.078   4.646   4.214
  408SOL    HW1 1405   3.129   4.681   4.135
  408SOL    HW2 1406   3.097   4.548   4.224
  409SOL     OW 1407   3.703   4.148   0.355
  409SOL    HW1 1408   3.627   4.146   0.289
  409SOL    HW2 1409   3.671   4.188   0.440
  410SOL     OW 1410   1.240   4.461   3.839
  410SOL    HW1 1411   1.169   4.392   3.828
  410SOL    HW2 1412   1.329   4.416   3.845
  411SOL     OW 1413   3.067   0.549   1.981
  411SOL    HW1 1414   2.998   0.494   1.935
  411SOL    HW2 1415   3.085   0.632   1.927
  412SOL     OW 1416   5.124   1.794   3.895
  412SOL    HW1 1417   5.089   1.888   3.902
  412SOL    HW2 1418   5.174   1.784   3.809
  413SOL     OW 1419   0.534   0.894   2.947
  413SOL    HW1 1420   0.625   0.919   2.981
  413SOL    HW2 1421   0.480   0.978   2.935
  414SOL     OW 1422   4.637   0.692   5.471
  414SOL    HW1 1423   4.609   0.667   5.564
  414SOL    HW2 1424   4.642   0.792   5.465
  415SOL     OW 1425   1.702   4.635   2.164
  415SOL    HW1 1426   1.622   4.603   2.112
  415SOL    HW2 1427   1.675   4.646   2.260
  416SOL     OW 1428   3.798   2.634   4.640
  416SOL    HW1 1429   3.894   2.604   4.641
  416SOL    HW2 1430   3.739   2.553   4.644
  417SOL     OW 1431   3.875   2.740   2.416
  417SOL    HW1 1432   3.941   2.810   2.389
  417SOL    HW2 1433   3.823   2.712   2.335
  418SOL     OW 1434   3.932   4.501   0.749
  418SOL    HW1 1435   3.893   4.409   0.749
  418SOL    HW2 1436   3.859   4.568   0.750
  419SOL     OW 1437   2.602   4.391   1.133
  419SOL    HW1 1438   2.505   4.377   1.156
  419SOL    HW2 1439   2.608   4.462   1.063
  420SOL     OW 1440   2.327   3.949   5.269
  420SOL    HW1 1441   2.238   3.994   5.267
  420SOL    HW2 1442   2.314   3.850   5.268
  421SOL     OW 1443   4.466   2.824   3.270
  421SOL    HW1 1444   4.414   2.838   3.187
  421SOL    HW2 1445   4.478   2.911   3.317
  422SOL     OW 1446   4.822   1.331   4.743
  422SOL    HW1 1447   4.751   1.318   4.674
  422SOL    HW2 1448   4.846   1.428   4.747
  423SOL     OW 1449   5.052   5.612   4.917
  423SOL    HW1 1450   5.137   5.587   4.870
  423SOL    HW2 1451   4.979   5.550   4.888
  424SOL     OW 1452   0.350   2.010   4.205
  424SOL    HW1 1453   0.274   2.070   4.181
  424SOL    HW2 1454   0.325   1.916   4.186
  425SOL     OW 1455   2.948   2.057   0.819
  425SOL    HW1 1456   2.908   2.102   0.738
  425SOL    HW2 1457   2.906   1.968   0.831
  426SOL     OW 1458   2.970   4.024   2.538
  426SOL    HW1 1459   2.938   3.930   2.525
  426SOL    HW2 1460   2.892   4.087   2.528
  427SOL     OW 1461   4.388   5.585   1.166
  427SOL    HW1 1462   4.347   5.497   1.139
  427SOL    HW2 1463   4.466   5.567   1.226
  428SOL     OW 1464   4.821   0.488   0.896
  428SOL    HW1 1465   4.726   0.520   0.893
  428SOL    HW2 1466   4.882   0.567   0.903
  429SOL     OW 1467   3.608   1.279   5.567
  429SOL    HW1 1468   3.556   1.195   5.548
  429SOL    HW2 1469   3.595   1.343   5.492
  430SOL     OW 1470   0.701   1.214   3.715
  430SOL    HW1 1471   0.725   1.260   3.800
  430SOL    HW2 1472   0.658   1.126   3.736
  431SOL     OW 1473   3.225   2.985   0.153
  431SOL    HW1 1474   3.289   2.921   0.194
  431SOL    HW2 1475   3.134   2.944   0.150
  432SOL     OW 1476   5.085   4.097   4.769
  432SOL    HW1 1477   5.030   4.179   4.757
  432SOL    HW2 1478   5.181   4.120   4.756
  433SOL     OW 1479   4.447   5.013   5.144
  433SOL    HW1 1480   4.489   5.073   5.076
  433SOL    HW2 1481   4.393   4.943   5.098
  434SOL     OW 1482   2.150   3.427   4.690
  434SOL    HW1 1483   2.199   3.373   4.622
  434SOL    HW2 1484   2.086   3.368   4.739
  435SOL     OW 1485   1.865   0.781   3.958
  435SOL    HW1 1486   1.817   0.833   4.030
  435SOL    HW2 1487   1.943   0.733   3.999
  436SOL     OW 1488   4.886   5.049   2.678
  436SOL    HW1 1489   4.821   5.008   2.613
  436SOL    HW2 1490   4.932   5.126   2.633
  437SOL     OW 1491   2.248   2.115   3.597
  437SOL    HW1 1492   2.312   2.185   3.564
  437SOL    HW2 1493   2.295   2.026   3.596
  438SOL     OW 1494   3.282   2.026   3.319
  438SOL    HW1 1495   3.376   1.993   3.308
  438SOL    HW2 1496   3.281   2.126   3.320
  439SOL     OW 1497   4.439   4.928   4.785
  439SOL    HW1 1498   4.356   4.974   4.818
  439SOL    HW2 1499   4.413   4.846   4.735
  440SOL     OW 1500   4.022   0.449   5.211
  440SOL    HW1 1501   3.990   0.387   5.140
  440SOL    HW2 1502   3.979   0.424   5.298
  441SOL     OW 1503   3.068   2.628   3.858
  441SOL    HW1 1504   3.095   2.698   3.924
  441SOL    HW2 1505   2.998   2.570   3.900
  442SOL     OW 1506   4.652   1.956   0.937
  442SOL    HW1 1507   4.624   2.035   0.991
  442SOL    HW2 1508   4.713   1.899   0.993
  443SOL     OW 1509   1.922   5.420   3.495
  443SOL    HW1 1510   1.907   5.519   3.502
  443SOL    HW2 1511   2.020   5.403   3.491
  444SOL     OW 1512   4.349   3.888   3.348
  444SOL    HW1 1513   4.277   3.945   3.387
  444SOL    HW2 1514   4.348   3.798   3.392
  445SOL     OW 1515   1.125   4.001   4.303
  445SOL    HW1 1516   1.029   4.020   4.322
  445SOL    HW2 1517   1.153   3.919   4.353
  446SOL     OW 1518   4.643   2.339   2.638
  446SOL    HW1 1519   4.598   2.332   2.549
  446SOL    HW2 1520   4.717   2.272   2.643
  447SOL     OW 1521   1.264   2.371   5.486
  447SOL    HW1 1522   1.254   2.294   5.549
  447SOL    HW2 1523   1.292   2.452   5.537
  448SOL     OW 1524   5.221   3.107   4.822
  448SOL    HW1 1525   5.165   3.190   4.813
  448SOL    HW2 1526   5.313   3.126   4.787
  449SOL     OW 1527   3.552   1.255   1.598
  449SOL    HW1 1528   3.608   1.270   1.517
  449SOL    HW2 1529   3.457   1.282   1.579
  450SOL     OW 1530   1.997   5.438   2.473
  450SOL    HW1 1531   1.980   5.483   2.385
  450SOL    HW2 1532   1.916   5.383   2.497
  451SOL     OW 1533   2.244   1.479   5.416
  451SOL    HW1 1534   2.294   1.565   5.411
  451SOL    HW2 1535   2.192   1.476   5.501
  452SOL     OW 1536   1.691   4.917   5.481
  452SOL    HW1 1537   1.778   4.960   5.505
  452SOL    HW2 1538   1.668   4.847   5.548
  453SOL     OW 1539   1.625   3.468   4.706
  453SOL    HW1 1540   1.593   3.428   4.620
  453SOL    HW2 1541   1.624   3.397   4.777
  454SOL     OW 1542   5.160   5.291   4.806
  454SOL    HW1 1543   5.231   5.225   4.828
  454SOL    HW2 1544   5.162   5.365   4.873
  455SOL     OW 1545   1.176   2.484   4.351
  455SOL    HW1 1546   1.085   2.443   4.351
  455SOL    HW2 1547   1.245   2.411   4.351
  456SOL     OW 1548   5.207   4.423   3.365
  456SOL    HW1 1549   5.256   4.408   3.279
  456SOL    HW2 1550   5.137   4.494   3.352
  457SOL     OW 1551   0.834   3.455   5.177
  457SOL    HW1 1552   0.822   3.506   5.262
  457SOL    HW2 1553   0.819   3.517   5.099
  458SOL     OW 1554   3.146   2.792   1.882
  458SOL    HW1 1555   3.176   2.700   1.907
  458SOL    HW2 1556   3.048   2.791   1.862
  459SOL     OW 1557   0.366   4.947   5.352
  459SOL    HW1 1558   0.314   4.920   5.433
  459SOL    HW2 1559   0.337   4.892   5.274
  460SOL     OW 1560   5.324   2.713   2.844
  460SOL    HW1 1561   5.226   2.693   2.840
  460SOL    HW2 1562   5.338   2.811   2.826
  461SOL     OW 1563   0.327   2.598   1.768
  461SOL    HW1 1564   0.292   2.619   1.860
  461SOL    HW2 1565   0.251   2.574   1.709
  462SOL     OW 1566   2.400   2.282   2.430
  462SOL    HW1 1567   2.463   2.210   2.456
  462SOL    HW2 1568   2.450   2.367   2.415
  463SOL     OW 1569   4.146   0.571   4.012
  463SOL    HW1 1570   4.213   0.520   3.957
  463SOL    HW2 1571   4.186   0.591   4.102
  464SOL     OW 1572   1.065   5.203   1.544
  464SOL    HW1 1573   1.001   5.186   1.619
  464SOL    HW2 1574   1.027   5.273   1.484
  465SOL     OW 1575   2.157   1.497   0.792
  465SOL    HW1 1576   2.253   1.474   0.809
  465SOL    HW2 1577   2.099   1.423   0.825
  466SOL     OW 1578   3.391   2.838   2.716
  466SOL    HW1 1579   3.427   2.932   2.709
  466SOL    HW2 1580   3.367   2.820   2.812
  467SOL     OW 1581   4.730   4.108   4.457
  467SOL    HW1 1582   4.703   4.012   4.452
  467SOL    HW2 1583   4.647   4.165   4.463
  468SOL     OW 1584   0.807   1.948   2.528
  468SOL    HW1 1585   0.811   2.043   2.495
  468SOL    HW2 1586   0.883   1.933   2.592
  469SOL     OW 1587   1.281   4.567   2.068
  469SOL    HW1 1588   1.286   4.667   2.072
  469SOL    HW2 1589   1.187   4.538   2.087
  470SOL     OW 1590   3.502   5.404   4.809
  470SOL    HW1 1591   3.522   5.319   4.857
  470SOL    HW2 1592   3.488   5.477   4.876
  471SOL     OW 1593   1.852   5.528   1.078
  471SOL    HW1 1594   1.760   5.564   1.063
  471SOL    HW2 1595   1.850   5.429   1.069
  472SOL     OW 1596   2.213   1.855   5.595
  472SOL    HW1 1597   2.138   1.891   5.650
  472SOL    HW2 1598   2.278   1.929   5.577
  473SOL     OW 1599   5.004   2.513   1.152
  473SOL    HW1 1600   5.032   2.519   1.056
  473SOL    HW2 1601   4.905   2.515   1.158
  474SOL     OW 1602   3.605   4.887   0.463
  474SOL    HW1 1603   3.559   4.798   0.467
  474SOL    HW2 1604   3.541   4.955   0.426
  475SOL     OW 1605   1.905   0.255   4.546
  475SOL    HW1 1606   1.839   0.310   4.494
  475SOL    HW2 1607   1.870   0.162   4.554
  476SOL     OW 1608   5.199   1.680   4.209
  476SOL    HW1 1609   5.112   1.655   4.251
  476SOL    HW2 1610   5.188   1.766   4.159
  477SOL     OW 1611   2.302   2.074   4.566
  477SOL    HW1 1612   2.278   2.019   4.486
  477SOL    HW2 1613   2.353   2.155   4.535
  478SOL     OW 1614   1.147   1.315   2.437
  478SOL    HW1 1615   1.111   1.272   2.354
  478SOL    HW2 1616   1.190   1.402   2.413
  479SOL     OW 1617   2.997   1.070   3.839
  479SOL    HW1 1618   2.898   1.083   3.847
  479SOL    HW2 1619   3.015   0.995   3.775
  480SOL     OW 1620   3.729   3.747   0.856
  480SOL    HW1 1621   3.631   3.730   0.850
  480SOL    HW2 1622   3.761   3.720   0.948
  481SOL     OW 1623   1.559   4.563   5.573
  481SOL    HW1 1624   1.554   4.495   5.500
  481SOL    HW2 1625   1.654   4.592   5.585
  482SOL     OW 1626   5.061   4.093   1.934
  482SOL    HW1 1627   5.034   4.140   2.018
  482SOL    HW2 1628   4.987   4.032   1.906
  483SOL     OW 1629   2.369   1.759   3.961
  483SOL    HW1 1630   2.453   1.778   4.011
  483SOL    HW2 1631   2.338   1.842   3.914
  484SOL     OW 1632   5.556   3.428   2.615
  484SOL    HW1 1633   5.510   3.346   2.582
  484SOL    HW2 1634   5.593   3.411   2.707
  485SOL     OW 1635   5.091   1.677   0.264
  485SOL    HW1 1636   5.129   1.588   0.290
  485SOL    HW2 1637   4.996   1.664   0.234
  486SOL     OW 1638   4.464   3.365   5.458
  486SOL    HW1 1639   4.389   3.299   5.456
  486SOL    HW2 1640   4.549   3.318   5.433
  487SOL     OW 1641   4.376   3.323   3.838
  487SOL    HW1 1642   4.475   3.330   3.827
  487SOL    HW2 1643   4.354   3.233   3.876
  488SOL     OW 1644   4.477   4.107   4.179
  488SOL    HW1 1645   4.563   4.118   4.129
  488SOL    HW2 1646   4.416   4.048   4.125
  489SOL     OW 1647   2.670   2.157   3.477
  489SOL    HW1 1648   2.716   2.075   3.511
  489SOL    HW2 1649   2.587   2.130   3.428
  490SOL     OW 1650   1.211   4.662   3.930
  490SOL    HW1 1651   1.116   4.644   3.904
  490SOL    HW2 1652   1.213   4.734   4.000
  491SOL     OW 1653   1.729   5.097   4.815
  491SOL    HW1 1654   1.823   5.119   4.839
  491SOL    HW2 1655   1.682   5.179   4.786
  492SOL     OW 1656   4.536   4.552   2.430
  492SOL    HW1 1657   4.454   4.515   2.387
  492SOL    HW2 1658   4.549   4.508   2.519
  493SOL     OW 1659   1.794   2.516   3.847
  493SOL    HW1 1660   1.718   2.489   3.788
  493SOL    HW2 1661   1.766   2.595   3.902
  494SOL     OW 1662   3.162   5.167   0.342
  494SOL    HW1 1663   3.210   5.232   0.283
  494SOL    HW2 1664   3.099   5.217   0.401
  495SOL     OW 1665   1.568   4.468   0.835
  495SOL    HW1 1666   1.469   4.476   0.821
  495SOL    HW2 1667   1.593   4.371   0.836
  496SOL     OW 1668   1.526   0.896   2.828
  496SOL    HW1 1669   1.475   0.810   2.830
  496SOL    HW2 1670   1.618   0.881   2.865
  497SOL     OW 1671   4.555   4.925   2.916
  497SOL    HW1 1672   4.596   4.833   2.918
  497SOL    HW2 1673   4.627   4.994   2.914
  498SOL     OW 1674   4.550   0.580   1.906
  498SOL    HW1 1675   4.573   0.611   1.814
  498SOL    HW2 1676   4.553   0.480   1.908
  499SOL     OW 1677   2.208   3.350   4.058
  499SOL    HW1 1678   2.123   3.306   4.031
  499SOL    HW2 1679   2.226   3.329   4.154
  500SOL     OW 1680   2.038   3.073   4.577
  500SOL    HW1 1681   2.039   3.169   4.605
  500SOL    HW2 1682   2.109   3.024   4.627
  501SOL     OW 1683   2.448   3.045   0.457
  501SOL    HW1 1684   2.471   3.143   0.458
  501SOL    HW2 1685   2.349   3.035   0.460
  502SOL     OW 1686   3.058   1.166   4.722
  502SOL    HW1 1687   3.065   1.071   4.691
  502SOL    HW2 1688   3.148   1.195   4.756
  503SOL     OW 1689   5.202   1.909   5.109
  503SOL    HW1 1690   5.128   1.976   5.111
  503SOL    HW2 1691   5.285   1.951   5.144
  504SOL     OW 1692   5.091   0.613   5.337
  504SOL    HW1 1693   5.012   0.665   5.369
  504SOL    HW2 1694   5.073   0.578   5.245
  505SOL     OW 1695   2.720   3.584   0.300
  505SOL    HW1 1696   2.777   3.510   0.265
  505SOL    HW2 1697   2.667   3.550   0.378
  506SOL     OW 1698   2.306   1.021   4.822
  506SOL    HW1 1699   2.323   0.931   4.862
  506SOL    HW2 1700   2.209   1.028   4.796
  507SOL     OW 1701   2.527   3.131   0.723
  507SOL    HW1 1702   2.462   3.055   0.715
  507SOL    HW2 1703   2.616   3.101   0.687
  508SOL     OW 1704   2.514   0.999   4.089
  508SOL    HW1 1705   2.440   1.065   4.075
  508SOL    HW2 1706   2.600   1.041   4.058
  509SOL     OW 1707   2.117   3.606   0.839
  509SOL    HW1 1708   2.042   3.540   0.847
  509SOL    HW2 1709   2.082   3.698   0.854
  510SOL     OW 1710   3.998   4.278   3.992
  510SOL    HW1 1711   3.903   4.248   3.985
  510SOL    HW2 1712   4.057   4.199   4.005
  511SOL     OW 1713   3.579   5.532   1.762
  511SOL    HW1 1714   3.540   5.624   1.768
  511SOL    HW2 1715   3.505   5.466   1.750
  512SOL     OW 1716   1.044   4.185   4.679
  512SOL    HW1 1717   0.951   4.219   4.689
  512SOL    HW2 1718   1.102   4.258   4.645
  513SOL     OW 1719   1.297   5.594   4.902
  513SOL    HW1 1720   1.349   5.650   4.837
  513SOL    HW2 1721   1.276   5.506   4.859
  514SOL     OW 1722   2.875   0.680   4.240
  514SOL    HW1 1723   2.852   0.632   4.155
  514SOL    HW2 1724   2.802   0.664   4.307
  515SOL     OW 1725   0.524   1.826   4.552
  515SOL    HW1 1726   0.614   1.808   4.511
  515SOL    HW2 1727   0.492   1.743   4.597
  516SOL     OW 1728   4.379   2.362   2.046
  516SOL    HW1 1729   4.325   2.280   2.030
  516SOL    HW2 1730   4.351   2.433   1.981
  517SOL     OW 1731   5.020   4.976   1.948
  517SOL    HW1 1732   4.933   4.986   1.900
  517SOL    HW2 1733   5.020   5.038   2.027
  518SOL     OW 1734   4.412   4.684   2.139
  518SOL    HW1 1735   4.362   4.764   2.105
  518SOL    HW2 1736   4.398   4.677   2.237
  519SOL     OW 1737   1.640   5.338   4.565
  519SOL    HW1 1738   1.572   5.398   4.607
  519SOL    HW2 1739   1.730   5.381   4.569
  520SOL     OW 1740   3.893   4.706   1.031
  520SOL    HW1 1741   3.823   4.678   1.097
  520SOL    HW2 1742   3.893   4.806   1.025
  521SOL     OW 1743   5.370   0.844   5.589
  521SOL    HW1 1744   5.463   0.853   5.553
  521SOL    HW2 1745   5.363   0.758   5.638
  522SOL     OW 1746   2.875   2.938   2.421
  522SOL    HW1 1747   2.959   2.989   2.438
  522SOL    HW2 1748   2.823   2.985   2.349
  523SOL     OW 1749   0.741   3.034   4.356
  523SOL    HW1 1750   0.710   2.942   4.332
  523SOL    HW2 1751   0.673   3.077   4.416
  524SOL     OW 1752   3.545   3.365   3.406
  524SOL    HW1 1753   3.582   3.421   3.480
  524SOL    HW2 1754   3.610   3.291   3.385
  525SOL     OW 1755   1.918   0.240   2.669
  525SOL    HW1 1756   1.955   0.150   2.692
  525SOL    HW2 1757   1.825   0.248   2.706
  526SOL     OW 1758   4.547   4.638   0.214
  526SOL    HW1 1759   4.562   4.547   0.176
  526SOL    HW2 1760   4.634   4.674   0.246
  527SOL     OW 1761   0.723   3.284   2.626
  527SOL    HW1 1762   0.639   3.231   2.636
  527SOL    HW2 1763   0.760   3.305   2.716
  528SOL     OW 1764   2.372   2.022   5.254
  528SOL    HW1 1765   2.329   2.104   5.290
  528SOL    HW2 1766   2.469   2.040   5.238
  529SOL     OW 1767   4.797   0.154   5.482
  529SOL    HW1 1768   4.708   0.170   5.439
  529SOL    HW2 1769   4.803   0.207   5.566
  530SOL     OW 1770   1.679   3.382   0.733
  530SOL    HW1 1771   1.623   3.460   0.705
  530SOL    HW2 1772   1.621   3.302   0.744
  531SOL     OW 1773   1.789   0.456   2.423
  531SOL    HW1 1774   1.803   0.378   2.362
  531SOL    HW2 1775   1.719   0.432   2.491
  532SOL     OW 1776   4.223   1.216   4.934
  532SOL    HW1 1777   4.126   1.233   4.949
  532SOL    HW2 1778   4.264   1.297   4.892
  533SOL     OW 1779   1.929   1.334   1.538
  533SOL    HW1 1780   1.991   1.339   1.616
  533SOL    HW2 1781   1.908   1.238   1.518
  534SOL     OW 1782   4.809   0.296   1.226
  534SOL    HW1 1783   4.867   0.264   1.301
  534SOL    HW2 1784   4.867   0.329   1.151
  535SOL     OW 1785   4.158   4.710   5.178
  535SOL    HW1 1786   4.240   4.712   5.234
  535SOL    HW2 1787   4.101   4.632   5.205
  536SOL     OW 1788   2.978   0.618   0.544
  536SOL    HW1 1789   3.021   0.603   0.633
  536SOL    HW2 1790   3.043   0.594   0.472
  537SOL     OW 1791   0.930   2.795   4.502
  537SOL    HW1 1792   0.834   2.796   4.527
  537SOL    HW2 1793   0.954   2.884   4.462
  538SOL     OW 1794   3.733   2.122   3.217
  538SOL    HW1 1795   3.665   2.119   3.291
  538SOL    HW2 1796   3.718   2.045   3.156
  539SOL     OW 1797   3.237   5.509   1.509
  539SOL    HW1 1798   3.302   5.444   1.548
  539SOL    HW2 1799   3.227   5.490   1.411
  540SOL     OW 1800   4.846   4.261   5.223
  540SOL    HW1 1801   4.944   4.279   5.216
  540SOL    HW2 1802   4.795   4.339   5.187
  541SOL     OW 1803   3.253   3.803   4.973
  541SOL    HW1 1804   3.342   3.783   4.931
  541SOL    HW2 1805   3.209   3.717   4.998
  542SOL     OW 1806   4.038   5.052   3.881
  542SOL    HW1 1807   4.130   5.069   3.847
  542SOL    HW2 1808   4.031   4.957   3.911
  543SOL     OW 1809   3.778   2.588   4.999
  543SOL    HW1 1810   3.839   2.509   4.987
  543SOL    HW2 1811   3.833   2.668   5.023
  544SOL     OW 1812   5.210   2.284   5.569
  544SOL    HW1 1813   5.244   2.235   5.649
  544SOL    HW2 1814   5.286   2.299   5.505
  545SOL     OW 1815   2.349   2.786   4.879
  545SOL    HW1 1816   2.439   2.818   4.907
  545SOL    HW2 1817   2.359   2.704   4.823
  546SOL     OW 1818   1.169   2.562   3.761
  546SOL    HW1 1819   1.265   2.587   3.752
  546SOL    HW2 1820   1.161   2.462   3.766
  547SOL     OW 1821   1.136   5.560   5.067
  547SOL    HW1 1822   1.145   5.581   5.165
  547SOL    HW2 1823   1.108   5.643   5.018
  548SOL     OW 1824   3.752   1.511   2.871
  548SOL    HW1 1825   3.784   1.473   2.958
  548SOL    HW2 1826   3.746   1.438   2.803
  549SOL     OW 1827   1.825   0.920   2.483
  549SOL    HW1 1828   1.868   1.009   2.500
  549SOL    HW2 1829   1.726   0.931   2.478
  550SOL     OW 1830   4.286   1.419   0.471
  550SOL    HW1 1831   4.366   1.451   0.521
  550SOL    HW2 1832   4.263   1.327   0.501
  551SOL     OW 1833   2.177   4.895   1.198
  551SOL    HW1 1834   2.189   4.830   1.122
  551SOL    HW2 1835   2.107   4.859   1.260
  552SOL     OW 1836   2.320   5.274   1.530
  552SOL    HW1 1837   2.397   5.212   1.512
  552SOL    HW2 1838   2.355   5.360   1.567
  553SOL     OW 1839   1.188   0.297   3.885
  553SOL    HW1 1840   1.231   0.272   3.798
  553SOL    HW2 1841   1.190   0.396   3.896
  554SOL     OW 1842   0.474   5.184   0.542
  554SOL    HW1 1843   0.379   5.214   0.549
  554SOL    HW2 1844   0.532   5.243   0.598
  555SOL     OW 1845   1.388   4.737   5.572
  555SOL    HW1 1846   1.422   4.790   5.650
  555SOL    HW2 1847   1.307   4.686   5.599
  556SOL     OW 1848   4.732   4.512   4.919
  556SOL    HW1 1849   4.787   4.459   4.983
  556SOL    HW2 1850   4.787   4.536   4.840
  557SOL     OW 1851   0.442   5.524   0.858
  557SOL    HW1 1852   0.416   5.608   0.906
  557SOL    HW2 1853   0.541   5.510   0.869
  558SOL     OW 1854   4.111   4.612   4.238
  558SOL    HW1 1855   4.058   4.548   4.183
  558SOL    HW2 1856   4.103   4.704   4.199
  559SOL     OW 1857   1.694   3.853   4.830
  559SOL    HW1 1858   1.715   3.772   4.885
  559SOL    HW2 1859   1.754   3.927   4.857
  560SOL     OW 1860   2.144   1.975   2.958
  560SOL    HW1 1861   2.141   1.879   2.929
  560SOL    HW2 1862   2.239   2.001   2.975
  561SOL     OW 1863   1.520   5.474   3.084
  561SOL    HW1 1864   1.542   5.508   2.993
  561SOL    HW2 1865   1.499   5.551   3.144
  562SOL     OW 1866   0.833   1.748   4.787
  562SOL    HW1 1867   0.930   1.725   4.786
  562SOL    HW2 1868   0.782   1.676   4.740
  563SOL     OW 1869   2.850   4.819   5.633
  563SOL    HW1 1870   2.945   4.795   5.615
  563SOL    HW2 1871   2.798   4.735   5.650
  564SOL     OW 1872   4.923   2.632   1.404
  564SOL    HW1 1873   4.988   2.577   1.456
  564SOL    HW2 1874   4.969   2.716   1.374
  565SOL     OW 1875   2.939   1.611   3.449
  565SOL    HW1 1876   2.913   1.591   3.543
  565SOL    HW2 1877   2.920   1.532   3.391
  566SOL     OW 1878   5.462   2.165   4.181
  566SOL    HW1 1879   5.380   2.223   4.176
  566SOL    HW2 1880   5.543   2.223   4.187
  567SOL     OW 1881   3.242   4.982   2.728
  567SOL    HW1 1882   3.239   4.935   2.816
  567SOL    HW2 1883   3.292   4.926   2.662
  568SOL     OW 1884   2.997   1.704   1.371
  568SOL    HW1 1885   3.083   1.750   1.348
  568SOL    HW2 1886   3.015   1.609   1.393
  569SOL     OW 1887   1.056   3.588   4.372
  569SOL    HW1 1888   1.138   3.575   4.428
  569SOL    HW2 1889   1.043   3.686   4.355
  570SOL     OW 1890   3.728   0.540   4.385
  570SOL    HW1 1891   3.651   0.592   4.349
  570SOL    HW2 1892   3.765   0.480   4.313
  571SOL     OW 1893   0.562   4.157   4.511
  571SOL    HW1 1894   0.643   4.100   4.498
  571SOL    HW2 1895   0.544   4.210   4.428
  572SOL     OW 1896   2.223   4.888   0.787
  572SOL    HW1 1897   2.170   4.941   0.854
  572SOL    HW2 1898   2.186   4.795   0.782
  573SOL     OW 1899   4.466   0.894   3.668
  573SOL    HW1 1900   4.459   0.904   3.767
  573SOL    HW2 1901   4.559   0.918   3.639
  574SOL     OW 1902   4.690   2.353   5.494
  574SOL    HW1 1903   4.691   2.256   5.519
  574SOL    HW2 1904   4.612   2.371   5.435
  575SOL     OW 1905   3.499   2.316   4.235
  575SOL    HW1 1906   3.459   2.224   4.234
  575SOL    HW2 1907   3.482   2.358   4.324
  576SOL     OW 1908   1.409   4.433   4.479
  576SOL    HW1 1909   1.466   4.353   4.460
  576SOL    HW2 1910   1.315   4.404   4.493
  577SOL     OW 1911   4.516   2.265   3.515
  577SOL    HW1 1912   4.450   2.337   3.535
  577SOL    HW2 1913   4.477   2.203   3.447
  578SOL     OW 1914   3.553   0.443   3.501
  578SOL    HW1 1915   3.603   0.461   3.586
  578SOL    HW2 1916   3.491   0.365   3.515
  579SOL     OW 1917   4.319   4.611   3.023
  579SOL    HW1 1918   4.224   4.640   3.016
  579SOL    HW2 1919   4.372   4.683   3.068
  580SOL     OW 1920   4.987   2.526   4.370
  580SOL    HW1 1921   5.022   2.449   4.423
  580SOL    HW2 1922   5.063   2.569   4.321
  581SOL     OW 1923   4.760   3.203   2.001
  581SOL    HW1 1924   4.858   3.184   2.010
  581SOL    HW2 1925   4.709   3.135   2.052
  582SOL     OW 1926   1.966   1.938   3.274
  582SOL    HW1 1927   1.878   1.895   3.256
  582SOL    HW2 1928   2.036   1.867   3.279
  583SOL     OW 1929   3.198   3.082   4.659
  583SOL    HW1 1930   3.179   3.002   4.601
  583SOL    HW2 1931   3.115   3.107   4.709
  584SOL     OW 1932   2.853   3.947   3.976
  584SOL    HW1 1933   2.849   4.040   3.940
  584SOL    HW2 1934   2.786   3.890   3.928
  585SOL     OW 1935   2.995   1.171   3.469
  585SOL    HW1 1936   3.046   1.209   3.393
  585SOL    HW2 1937   3.058   1.146   3.542
  586SOL     OW 1938   1.296   0.682   1.002
  586SOL    HW1 1939   1.328   0.733   1.081
  586SOL    HW2 1940   1.202   0.707   0.981
  587SOL     OW 1941   3.771   2.378   0.312
  587SOL    HW1 1942   3.817   2.342   0.393
  587SOL    HW2 1943   3.832   2.371   0.233
  588SOL     OW 1944   4.111   2.421   2.116
  588SOL    HW1 1945   4.182   2.444   2.183
  588SOL    HW2 1946   4.027   2.468   2.141
  589SOL     OW 1947   2.854   3.689   2.021
  589SOL    HW1 1948   2.920   3.752   2.061
  589SOL    HW2 1949   2.762   3.728   2.030
  590SOL     OW 1950   2.158   3.685   5.353
  590SOL    HW1 1951   2.114   3.733   5.277
  590SOL    HW2 1952   2.095   3.683   5.431
  591SOL     OW 1953   2.165   3.510   3.705
  591SOL    HW1 1954   2.093   3.464   3.757
  591SOL    HW2 1955   2.244   3.448   3.696
  592SOL     OW 1956   4.225   4.329   4.144
  592SOL    HW1 1957   4.269   4.417   4.156
  592SOL    HW2 1958   4.127   4.338   4.162
  593SOL     OW 1959   1.610   5.179   2.979
  593SOL    HW1 1960   1.510   5.173   2.982
  593SOL    HW2 1961   1.649   5.109   3.038
  594SOL     OW 1962   1.558   4.568   4.680
  594SOL    HW1 1963   1.488   4.637   4.662
  594SOL    HW2 1964   1.648   4.609   4.669
  595SOL     OW 1965   0.707   5.080   4.421
  595SOL    HW1 1966   0.763   5.050   4.499
  595SOL    HW2 1967   0.736   5.171   4.393
  596SOL     OW 1968   1.096   4.547   4.287
  596SOL    HW1 1969   1.065   4.457   4.317
  596SOL    HW2 1970   1.193   4.544   4.266
  597SOL     OW 1971   2.512   1.646   1.782
  597SOL    HW1 1972   2.548   1.597   1.703
  597SOL    HW2 1973   2.414   1.661   1.770
  598SOL     OW 1974   3.466   5.419   4.545
  598SOL    HW1 1975   3.546   5.476   4.529
  598SOL    HW2 1976   3.492   5.322   4.538
  599SOL     OW 1977   1.388   1.789   5.135
  599SOL    HW1 1978   1.415   1.693   5.139
  599SOL    HW2 1979   1.470   1.846   5.129
  600SOL     OW 1980   0.810   0.914   3.464
  600SOL    HW1 1981   0.856   0.903   3.552
  600SOL    HW2 1982   0.718   0.874   3.470
  601SOL     OW 1983   2.845   2.813   3.606
  601SOL    HW1 1984   2.841   2.896   3.551
  601SOL    HW2 1985   2.930   2.764   3.586
  602SOL     OW 1986   1.140   4.195   5.179
  602SOL    HW1 1987   1.168   4.100   5.191
  602SOL    HW2 1988   1.041   4.198   5.163
  603SOL     OW 1989   3.604   3.084   1.045
  603SOL    HW1 1990   3.665   3.005   1.039
  603SOL    HW2 1991   3.653   3.160   1.087
  604SOL     OW 1992   4.473   1.507   5.263
  604SOL    HW1 1993   4.450   1.599   5.296
  604SOL    HW2 1994   4.388   1.456   5.249
  605SOL     OW 1995   1.851   4.374   5.000
  605SOL    HW1 1996   1.765   4.416   4.971
  605SOL    HW2 1997   1.915   4.376   4.924
  606SOL     OW 1998   1.619   5.025   3.772
  606SOL    HW1 1999   1.598   5.090   3.844
  606SOL    HW2 2000   1.635   4.935   3.813
  607SOL     OW 2001   1.021   0.510   0.464
  607SOL    HW1 2002   1.091   0.486   0.531
  607SOL    HW2 2003   1.058   0.495   0.372
  608SOL     OW 2004   1.613   3.054   0.298
  608SOL    HW1 2005   1.712   3.039   0.300
  608SOL    HW2 2006   1.573   2.998   0.224
  609SOL     OW 2007   1.266   4.841   4.436
  609SOL    HW1 2008   1.263   4.787   4.520
  609SOL    HW2 2009   1.345   4.813   4.382
  610SOL     OW 2010   4.342   4.300   1.828
  610SOL    HW1 2011   4.412   4.357   1.785
  610SOL    HW2 2012   4.384   4.217   1.864
  611SOL     OW 2013   5.331   1.623   1.461
  611SOL    HW1 2014   5.245   1.586   1.427
  611SOL    HW2 2015   5.327   1.723   1.463
  612SOL     OW 2016   1.805   1.782   3.531
  612SOL    HW1 2017   1.782   1.847   3.603
  612SOL    HW2 2018   1.894   1.805   3.492
  613SOL     OW 2019   3.303   1.094   1.730
  613SOL    HW1 2020   3.304   1.192   1.709
  613SOL    HW2 2021   3.348   1.078   1.818
  614SOL     OW 2022   5.104   1.768   4.574
  614SOL    HW1 2023   5.076   1.752   4.480
  614SOL    HW2 2024   5.122   1.680   4.619
  615SOL     OW 2025   0.596   2.623   2.786
  615SOL    HW1 2026   0.635   2.551   2.729
  615SOL    HW2 2027   0.518   2.664   2.739
  616SOL     OW 2028   2.920   2.746   3.179
  616SOL    HW1 2029   2.879   2.667   3.226
  616SOL    HW2 2030   2.853   2.819   3.175
  617SOL     OW 2031   2.356   4.274   1.403
  617SOL    HW1 2032   2.430   4.211   1.427
  617SOL    HW2 2033   2.394   4.353   1.355
  618SOL     OW 2034   5.143   5.569   3.130
  618SOL    HW1 2035   5.073   5.498   3.129
  618SOL    HW2 2036   5.233   5.526   3.122
  619SOL     OW 2037   3.915   1.956   0.892
  619SOL    HW1 2038   3.940   1.940   0.796
  619SOL    HW2 2039   3.917   1.869   0.941
  620SOL     OW 2040   2.158   2.692   2.259
  620SOL    HW1 2041   2.162   2.593   2.250
  620SOL    HW2 2042   2.250   2.729   2.247
  621SOL     OW 2043   2.673   1.777   0.463
  621SOL    HW1 2044   2.640   1.866   0.431
  621SOL    HW2 2045   2.598   1.727   0.506
  622SOL     OW 2046   0.537   4.038   5.371
  622SOL    HW1 2047   0.544   4.055   5.469
  622SOL    HW2 2048   0.490   3.951   5.356
  623SOL     OW 2049   1.158   5.644   1.758
  623SOL    HW1 2050   1.124   5.616   1.668
  623SOL    HW2 2051   1.221   5.575   1.792
  624SOL     OW 2052   3.776   4.709   4.709
  624SOL    HW1 2053   3.832   4.628   4.727
  624SOL    HW2 2054   3.795   4.778   4.778
  625SOL     OW 2055   1.165   3.703   5.112
  625SOL    HW1 2056   1.068   3.702   5.088
  625SOL    HW2 2057   1.191   3.611   5.142
  626SOL     OW 2058   1.537   3.853   5.554
  626SOL    HW1 2059   1.591   3.768   5.546
  626SOL    HW2 2060   1.599   3.931   5.551
  627SOL     OW 2061   2.048   4.942   0.256
  627SOL    HW1 2062   2.135   4.978   0.291
  627SOL    HW2 2063   1.988   5.018   0.233
  628SOL     OW 2064   1.392   1.193   4.709
  628SOL    HW1 2065   1.335   1.243   4.774
  628SOL    HW2 2066   1.334   1.153   4.638
  629SOL     OW 2067   2.912   3.840   0.258
  629SOL    HW1 2068   2.859   3.756   0.247
  629SOL    HW2 2069   2.994   3.821   0.312
  630SOL     OW 2070   0.245   4.188   1.004
  630SOL    HW1 2071   0.150   4.160   0.992
  630SOL    HW2 2072   0.302   4.106   1.011
  631SOL     OW 2073   2.266   3.666   1.566
  631SOL    HW1 2074   2.361   3.645   1.593
  631SOL    HW2 2075   2.259   3.765   1.549
  632SOL     OW 2076   2.130   3.130   2.810
  632SOL    HW1 2077   2.156   3.050   2.864
  632SOL    HW2 2078   2.070   3.100   2.736
  633SOL     OW 2079   3.965   3.427   5.102
  633SOL    HW1 2080   3.891   3.490   5.121
  633SOL    HW2 2081   3.937   3.334   5.128
  634SOL     OW 2082   2.099   3.283   1.925
  634SOL    HW1 2083   2.007   3.321   1.914
  634SOL    HW2 2084   2.164   3.338   1.873
  635SOL     OW 2085   2.646   3.269   2.050
  635SOL    HW1 2086   2.726   3.209   2.052
  635SOL    HW2 2087   2.564   3.215   2.068
  636SOL     OW 2088   0.929   3.048   0.300
  636SOL    HW1 2089   1.010   3.080   0.250
  636SOL    HW2 2090   0.849   3.097   0.268
  637SOL     OW 2091   4.530   5.145   3.365
  637SOL    HW1 2092   4.622   5.121   3.333
  637SOL    HW2 2093   4.474   5.061   3.369
  638SOL     OW 2094   5.198   4.667   0.181
  638SOL    HW1 2095   5.232   4.744   0.236
  638SOL    HW2 2096   5.274   4.606   0.159
  639SOL     OW 2097   1.407   2.917   0.831
  639SOL    HW1 2098   1.391   3.016   0.830
  639SOL    HW2 2099   1.319   2.870   0.842
  640SOL     OW 2100   1.846   4.962   5.020
  640SOL    HW1 2101   1.766   4.933   4.968
  640SOL    HW2 2102   1.928   4.949   4.964
  641SOL     OW 2103   2.178   2.447   2.005
  641SOL    HW1 2104   2.089   2.439   2.050
  641SOL    HW2 2105   2.238   2.504   2.061
  642SOL     OW 2106   5.073   3.155   3.649
  642SOL    HW1 2107   5.149   3.168   3.712
  642SOL    HW2 2108   5.024   3.242   3.639
  643SOL     OW 2109   2.229   4.769   1.960
  643SOL    HW1 2110   2.282   4.829   1.899
  643SOL    HW2 2111   2.292   4.713   2.013
  644SOL     OW 2112   4.264   3.193   1.974
  644SOL    HW1 2113   4.355   3.150   1.976
  644SOL    HW2 2114   4.194   3.122   1.974
  645SOL     OW 2115   0.549   2.051   2.126
  645SOL    HW1 2116   0.585   2.067   2.218
  645SOL    HW2 2117   0.497   1.966   2.125
  646SOL     OW 2118   4.880   4.717   0.634
  646SOL    HW1 2119   4.892   4.692   0.730
  646SOL    HW2 2120   4.960   4.769   0.604
  647SOL     OW 2121   5.619   0.524   1.319
  647SOL    HW1 2122   5.596   0.467   1.240
  647SOL    HW2 2123   5.559   0.604   1.320
  648SOL     OW 2124   5.076   0.354   5.427
  648SOL    HW1 2125   4.983   0.340   5.460
  648SOL    HW2 2126   5.114   0.267   5.396
  649SOL     OW 2127   2.734   4.567   3.250
  649SOL    HW1 2128   2.821   4.518   3.250
  649SOL    HW2 2129   2.659   4.500   3.253
  650SOL     OW 2130   0.491   4.906   5.097
  650SOL    HW1 2131   0.486   5.005   5.088
  650SOL    HW2 2132   0.587   4.878   5.093
  651SOL     OW 2133   4.139   4.051   0.161
  651SOL    HW1 2134   4.194   3.968   0.166
  651SOL    HW2 2135   4.199   4.130   0.150
  652SOL     OW 2136   5.026   5.020   4.450
  652SOL    HW1 2137   5.088   5.019   4.372
  652SOL    HW2 2138   5.079   5.029   4.535
  653SOL     OW 2139   3.966   2.408   2.382
  653SOL    HW1 2140   4.026   2.485   2.403
  653SOL    HW2 2141   3.895   2.438   2.319
  654SOL     OW 2142   3.741   1.529   3.378
  654SOL    HW1 2143   3.660   1.564   3.425
  654SOL    HW2 2144   3.751   1.578   3.291
  655SOL     OW 2145   2.463   2.998   0.932
  655SOL    HW1 2146   2.481   2.900   0.932
  655SOL    HW2 2147   2.547   3.048   0.954
  656SOL     OW 2148   1.400   0.802   4.843
  656SOL    HW1 2149   1.336   0.725   4.841
  656SOL    HW2 2150   1.493   0.768   4.831
  657SOL     OW 2151   4.420   3.457   2.604
  657SOL    HW1 2152   4.366   3.377   2.629
  657SOL    HW2 2153   4.359   3.531   2.578
  658SOL     OW 2154   1.465   3.123   4.805
  658SOL    HW1 2155   1.527   3.170   4.868
  658SOL    HW2 2156   1.484   3.025   4.806
  659SOL     OW 2157   3.811   2.249   4.033
  659SOL    HW1 2158   3.848   2.342   4.033
  659SOL    HW2 2159   3.711   2.252   4.031
  660SOL     OW 2160   0.263   4.343   1.283
  660SOL    HW1 2161   0.191   4.409   1.260
  660SOL    HW2 2162   0.228   4.278   1.350
  661SOL     OW 2163   3.055   3.401   0.265
  661SOL    HW1 2164   2.965   3.359   0.268
  661SOL    HW2 2165   3.045   3.501   0.264
  662SOL     OW 2166   0.458   2.364   5.151
  662SOL    HW1 2167   0.423   2.458   5.146
  662SOL    HW2 2168   0.557   2.365   5.142
  663SOL     OW 2169   2.242   5.049   3.705
  663SOL    HW1 2170   2.336   5.071   3.678
  663SOL    HW2 2171   2.196   5.134   3.731
  664SOL     OW 2172   3.878   4.359   5.118
  664SOL    HW1 2173   3.817   4.436   5.138
  664SOL    HW2 2174   3.972   4.385   5.140
  665SOL     OW 2175   1.515   3.057   4.566
  665SOL    HW1 2176   1.428   3.007   4.572
  665SOL    HW2 2177   1.497   3.155   4.564
  666SOL     OW 2178   0.765   5.200   1.734
  666SOL    HW1 2179   0.674   5.185   1.695
  666SOL    HW2 2180   0.817   5.115   1.728
  667SOL     OW 2181   4.627   1.950   5.450
  667SOL    HW1 2182   4.636   2.039   5.495
  667SOL    HW2 2183   4.714   1.901   5.458
  668SOL     OW 2184   3.527   3.887   4.413
  668SOL    HW1 2185   3.544   3.798   4.370
  668SOL    HW2 2186   3.542   3.879   4.512
  669SOL     OW 2187   1.354   5.378   5.269
  669SOL    HW1 2188   1.438   5.427   5.292
  669SOL    HW2 2189   1.277   5.441   5.272
  670SOL     OW 2190   0.974   0.427   3.509
  670SOL    HW1 2191   0.925   0.351   3.467
  670SOL    HW2 2192   0.927   0.513   3.486
  671SOL     OW 2193   1.405   3.590   2.503
  671SOL    HW1 2194   1.443   3.545   2.584
  671SOL    HW2 2195   1.447   3.680   2.493
  672SOL     OW 2196   3.878   1.242   1.626
  672SOL    HW1 2197   3.782   1.222   1.645
  672SOL    HW2 2198   3.927   1.156   1.613
  673SOL     OW 2199   3.851   5.117   2.779
  673SOL    HW1 2200   3.790   5.055   2.828
  673SOL    HW2 2201   3.825   5.212   2.798
  674SOL     OW 2202   3.272   5.598   5.149
  674SOL    HW1 2203   3.192   5.560   5.105
  674SOL    HW2 2204   3.337   5.525   5.170
  675SOL     OW 2205   3.316   2.840   3.346
  675SOL    HW1 2206   3.385   2.775   3.317
  675SOL    HW2 2207   3.345   2.883   3.431
  676SOL     OW 2208   4.116   3.129   0.509
  676SOL    HW1 2209   4.069   3.203   0.461
  676SOL    HW2 2210   4.214   3.150   0.515
  677SOL     OW 2211   1.510   0.436   4.688
  677SOL    HW1 2212   1.597   0.482   4.670
  677SOL    HW2 2213   1.485   0.381   4.609
  678SOL     OW 2214   0.159   1.336   0.925
  678SOL    HW1 2215   0.155   1.435   0.935
  678SOL    HW2 2216   0.255   1.307   0.917
  679SOL     OW 2217   5.596   5.343   0.300
  679SOL    HW1 2218   5.645   5.427   0.280
  679SOL    HW2 2219   5.650   5.265   0.268
  680SOL     OW 2220   3.459   4.434   3.193
  680SOL    HW1 2221   3.558   4.416   3.191
  680SOL    HW2 2222   3.410   4.348   3.206
  681SOL     OW 2223   5.031   0.417   2.029
  681SOL    HW1 2224   4.973   0.470   2.091
  681SOL    HW2 2225   5.119   0.400   2.074
  682SOL     OW 2226   0.302   4.331   2.111
  682SOL    HW1 2227   0.373   4.262   2.101
  682SOL    HW2 2228   0.215   4.294   2.079
  683SOL     OW 2229   4.041   4.960   3.574
  683SOL    HW1 2230   4.069   4.869   3.544
  683SOL    HW2 2231   3.942   4.960   3.589
  684SOL     OW 2232   1.116   3.803   1.415
  684SOL    HW1 2233   1.134   3.880   1.475
  684SOL    HW2 2234   1.065   3.834   1.335
  685SOL     OW 2235   0.579   3.857   2.419
  685SOL    HW1 2236   0.560   3.767   2.379
  685SOL    HW2 2237   0.667   3.891   2.385
  686SOL     OW 2238   2.531   4.544   3.483
  686SOL    HW1 2239   2.616   4.498   3.508
  686SOL    HW2 2240   2.551   4.613   3.413
  687SOL     OW 2241   4.465   2.787   5.015
  687SOL    HW1 2242   4.543   2.848   4.999
  687SOL    HW2 2243   4.496   2.692   5.012
  688SOL     OW 2244   3.232   2.545   2.162
  688SOL    HW1 2245   3.279   2.584   2.083
  688SOL    HW2 2246   3.141   2.585   2.169
  689SOL     OW 2247   1.330   3.272   2.513
  689SOL    HW1 2248   1.382   3.351   2.480
  689SOL    HW2 2249   1.368   3.243   2.601
  690SOL     OW 2250   2.955   0.908   4.346
  690SOL    HW1 2251   2.897   0.902   4.264
  690SOL    HW2 2252   2.945   0.824   4.399
  691SOL     OW 2253   2.979   2.484   1.525
  691SOL    HW1 2254   3.056   2.545   1.505
  691SOL    HW2 2255   3.004   2.391   1.500
  692SOL     OW 2256   2.435   0.238   4.976
  692SOL    HW1 2257   2.534   0.236   4.984
  692SOL    HW2 2258   2.404   0.152   4.936
  693SOL     OW 2259   3.299   2.053   0.582
  693SOL    HW1 2260   3.394   2.073   0.608
  693SOL    HW2 2261   3.274   2.110   0.504
  694SOL     OW 2262   3.066   0.492   3.530
  694SOL    HW1 2263   2.971   0.465   3.514
  694SOL    HW2 2264   3.069   0.589   3.554
  695SOL     OW 2265   4.760   4.013   0.412
  695SOL    HW1 2266   4.784   3.956   0.333
  695SOL    HW2 2267   4.812   3.981   0.492
  696SOL     OW 2268   2.918   1.716   0.327
  696SOL    HW1 2269   2.984   1.662   0.275
  696SOL    HW2 2270   2.906   1.805   0.283
  697SOL     OW 2271   3.247   0.585   4.815
  697SOL    HW1 2272   3.171   0.565   4.753
  697SOL    HW2 2273   3.226   0.667   4.868
  698SOL     OW 2274   1.963   3.600   4.655
  698SOL    HW1 2275   1.873   3.638   4.677
  698SOL    HW2 2276   1.952   3.504   4.628
  699SOL     OW 2277   3.160   0.783   1.204
  699SOL    HW1 2278   3.222   0.708   1.230
  699SOL    HW2 2279   3.087   0.747   1.146
  700SOL     OW 2280   3.834   4.677   2.515
  700SOL    HW1 2281   3.813   4.598   2.572
  700SOL    HW2 2282   3.755   4.698   2.458
  701SOL     OW 2283   3.624   5.055   3.901
  701SOL    HW1 2284   3.706   5.001   3.884
  701SOL    HW2 2285   3.543   4.997   3.888
  702SOL     OW 2286   0.217   5.332   0.372
  702SOL    HW1 2287   0.210   5.236   0.348
  702SOL    HW2 2288   0.313   5.358   0.380
  703SOL     OW 2289   2.000   3.734   3.833
  703SOL    HW1 2290   2.084   3.688   3.804
  703SOL    HW2 2291   1.923   3.673   3.816
  704SOL     OW 2292   0.999   4.246   1.398
  704SOL    HW1 2293   1.025   4.260   1.494
  704SOL    HW2 2294   0.903   4.219   1.394
  705SOL     OW 2295   4.318   1.891   3.574
  705SOL    HW1 2296   4.388   1.843   3.521
  705SOL    HW2 2297   4.241   1.829   3.591
  706SOL     OW 2298   4.766   5.532   2.383
  706SOL    HW1 2299   4.788   5.607   2.446
  706SOL    HW2 2300   4.846   5.473   2.373
  707SOL     OW 2301   3.377   0.185   1.911
  707SOL    HW1 2302   3.388   0.282   1.893
  707SOL    HW2 2303   3.292   0.170   1.962
  708SOL     OW 2304   1.174   4.990   0.920
  708SOL    HW1 2305   1.256   4.936   0.940
  708SOL    HW2 2306   1.186   5.083   0.957
  709SOL     OW 2307   0.276   0.763   3.314
  709SOL    HW1 2308   0.251   0.825   3.388
  709SOL    HW2 2309   0.263   0.811   3.226
  710SOL     OW 2310   0.329   2.429   4.833
  710SOL    HW1 2311   0.395   2.423   4.758
  710SOL    HW2 2312   0.276   2.344   4.837
  711SOL     OW 2313   3.118   3.289   0.852
  711SOL    HW1 2314   3.087   3.206   0.899
  711SOL    HW2 2315   3.076   3.368   0.896
  712SOL     OW 2316   5.544   2.234   0.645
  712SOL    HW1 2317   5.461   2.217   0.698
  712SOL    HW2 2318   5.605   2.295   0.696
  713SOL     OW 2319   2.845   3.507   1.016
  713SOL    HW1 2320   2.771   3.440   1.013
  713SOL    HW2 2321   2.808   3.599   1.004
  714SOL     OW 2322   3.313   0.772   3.623
  714SOL    HW1 2323   3.327   0.871   3.622
  714SOL    HW2 2324   3.402   0.726   3.625
  715SOL     OW 2325   2.839   0.374   0.939
  715SOL    HW1 2326   2.793   0.456   0.906
  715SOL    HW2 2327   2.791   0.293   0.905
  716SOL     OW 2328   1.177   4.694   2.466
  716SOL    HW1 2329   1.277   4.685   2.472
  716SOL    HW2 2330   1.147   4.656   2.379
  717SOL     OW 2331   4.471   1.437   3.512
  717SOL    HW1 2332   4.381   1.457   3.472
  717SOL    HW2 2333   4.498   1.513   3.571
  718SOL     OW 2334   4.377   5.072   4.463
  718SOL    HW1 2335   4.476   5.083   4.461
  718SOL    HW2 2336   4.345   5.046   4.373
  719SOL     OW 2337   1.746   5.605   4.818
  719SOL    HW1 2338   1.712   5.521   4.776
  719SOL    HW2 2339   1.814   5.582   4.888
  720SOL     OW 2340   3.812   0.169   2.741
  720SOL    HW1 2341   3.713   0.178   2.729
  720SOL    HW2 2342   3.832   0.150   2.837
  721SOL     OW 2343   4.641   0.506   0.603
  721SOL    HW1 2344   4.587   0.451   0.539
  721SOL    HW2 2345   4.620   0.478   0.696
  722SOL     OW 2346   1.309   5.155   2.468
  722SOL    HW1 2347   1.379   5.158   2.540
  722SOL    HW2 2348   1.264   5.066   2.470
  723SOL     OW 2349   2.377   1.578   3.076
  723SOL    HW1 2350   2.277   1.571   3.077
  723SOL    HW2 2351   2.416   1.486   3.073
  724SOL     OW 2352   4.202   0.772   4.280
  724SOL    HW1 2353   4.292   0.734   4.255
  724SOL    HW2 2354   4.168   0.724   4.361
  725SOL     OW 2355   4.462   1.149   3.515
  725SOL    HW1 2356   4.370   1.187   3.504
  725SOL    HW2 2357   4.529   1.223   3.509
  726SOL     OW 2358   0.373   2.561   3.172
  726SOL    HW1 2359   0.277   2.541   3.155
  726SOL    HW2 2360   0.383   2.655   3.203
  727SOL     OW 2361   0.835   2.051   1.955
  727SOL    HW1 2362   0.756   2.003   1.993
  727SOL    HW2 2363   0.917   2.026   2.007
  728SOL     OW 2364   1.633   4.497   4.351
  728SOL    HW1 2365   1.629   4.559   4.273
  728SOL    HW2 2366   1.727   4.492   4.385
  729SOL     OW 2367   3.032   2.535   4.785
  729SOL    HW1 2368   2.963   2.556   4.855
  729SOL    HW2 2369   3.120   2.572   4.815
  730SOL     OW 2370   5.511   2.125   1.938
  730SOL    HW1 2371   5.608   2.122   1.961
  730SOL    HW2 2372   5.464   2.051   1.986
  731SOL     OW 2373   3.714   4.888   3.017
  731SOL    HW1 2374   3.814   4.881   3.020
  731SOL    HW2 2375   3.675   4.796   3.011
  732SOL     OW 2376   5.009   1.549   5.118
  732SOL    HW1 2377   5.058   1.534   5.204
  732SOL    HW2 2378   5.075   1.550   5.043
  733SOL     OW 2379   1.135   4.873   4.247
  733SOL    HW1 2380   1.201   4.809   4.206
  733SOL    HW2 2381   1.046   4.829   4.253
  734SOL     OW 2382   1.035   5.554   4.047
  734SOL    HW1 2383   1.083   5.641   4.047
  734SOL    HW2 2384   0.937   5.570   4.046
  735SOL     OW 2385   5.412   2.216   3.658
  735SOL    HW1 2386   5.450   2.308   3.668
  735SOL    HW2 2387   5.464   2.153   3.716
  736SOL     OW 2388   2.502   5.038   1.882
  736SOL    HW1 2389   2.544   4.959   1.837
  736SOL    HW2 2390   2.539   5.122   1.843
  737SOL     OW 2391   3.570   3.128   1.761
  737SOL    HW1 2392   3.473   3.118   1.779
  737SOL    HW2 2393   3.622   3.106   1.844
  738SOL     OW 2394   4.266   5.569   1.553
  738SOL    HW1 2395   4.358   5.605   1.538
  738SOL    HW2 2396   4.227   5.613   1.634
  739SOL     OW 2397   1.339   2.767   4.252
  739SOL    HW1 2398   1.286   2.682   4.251
  739SOL    HW2 2399   1.436   2.746   4.235
  740SOL     OW 2400   1.248   0.235   4.421
  740SOL    HW1 2401   1.169   0.197   4.469
  740SOL    HW2 2402   1.331   0.190   4.455
  741SOL     OW 2403   3.192   1.025   2.577
  741SOL    HW1 2404   3.292   1.022   2.587
  741SOL    HW2 2405   3.163   0.954   2.513
  742SOL     OW 2406   2.076   2.688   1.323
  742SOL    HW1 2407   2.058   2.650   1.413
  742SOL    HW2 2408   2.169   2.663   1.294
  743SOL     OW 2409   2.443   2.372   0.235
  743SOL    HW1 2410   2.413   2.284   0.198
  743SOL    HW2 2411   2.396   2.388   0.322
  744SOL     OW 2412   5.185   1.517   1.129
  744SOL    HW1 2413   5.228   1.602   1.158
  744SOL    HW2 2414   5.220   1.442   1.187
  745SOL     OW 2415   2.773   0.720   3.658
  745SOL    HW1 2416   2.860   0.676   3.635
  745SOL    HW2 2417   2.764   0.804   3.604
  746SOL     OW 2418   5.581   1.732   1.743
  746SOL    HW1 2419   5.527   1.653   1.711
  746SOL    HW2 2420   5.536   1.816   1.714
  747SOL     OW 2421   5.450   4.875   5.002
  747SOL    HW1 2422   5.447   4.775   4.996
  747SOL    HW2 2423   5.545   4.905   4.997
  748SOL     OW 2424   1.995   4.752   2.561
  748SOL    HW1 2425   2.090   4.783   2.558
  748SOL    HW2 2426   1.935   4.832   2.563
  749SOL     OW 2427   2.068   1.740   4.803
  749SOL    HW1 2428   2.156   1.785   4.784
  749SOL    HW2 2429   1.994   1.797   4.767
  750SOL     OW 2430   1.183   5.442   4.245
  750SOL    HW1 2431   1.097   5.441   4.297
  750SOL    HW2 2432   1.238   5.364   4.272
  751SOL     OW 2433   2.860   5.585   2.298
  751SOL    HW1 2434   2.872   5.631   2.210
  751SOL    HW2 2435   2.946   5.590   2.349
  752SOL     OW 2436   1.862   5.489   2.110
  752SOL    HW1 2437   1.918   5.421   2.062
  752SOL    HW2 2438   1.796   5.441   2.168
  753SOL     OW 2439   3.802   1.425   1.214
  753SOL    HW1 2440   3.890   1.456   1.252
  753SOL    HW2 2441   3.807   1.326   1.200
  754SOL     OW 2442   2.986   5.650   3.985
  754SOL    HW1 2443   3.085   5.648   3.973
  754SOL    HW2 2444   2.963   5.614   4.075
  755SOL     OW 2445   4.636   3.360   3.064
  755SOL    HW1 2446   4.569   3.434   3.064
  755SOL    HW2 2447   4.588   3.273   3.069
  756SOL     OW 2448   0.780   5.341   1.056
  756SOL    HW1 2449   0.865   5.392   1.064
  756SOL    HW2 2450   0.800   5.244   1.042
  757SOL     OW 2451   1.581   1.067   4.704
  757SOL    HW1 2452   1.635   1.150   4.694
  757SOL    HW2 2453   1.640   0.987   4.691
  758SOL     OW 2454   5.151   4.190   1.580
  758SOL    HW1 2455   5.124   4.281   1.551
  758SOL    HW2 2456   5.222   4.196   1.650
  759SOL     OW 2457   3.286   1.855   2.187
  759SOL    HW1 2458   3.303   1.762   2.218
  759SOL    HW2 2459   3.301   1.918   2.264
  760SOL     OW 2460   2.650   4.590   1.307
  760SOL    HW1 2461   2.729   4.579   1.367
  760SOL    HW2 2462   2.630   4.688   1.298
  761SOL     OW 2463   1.774   1.306   3.601
  761SOL    HW1 2464   1.810   1.361   3.676
  761SOL    HW2 2465   1.849   1.280   3.540
  762SOL     OW 2466   0.454   5.491   4.317
  762SOL    HW1 2467   0.356   5.498   4.301
  762SOL    HW2 2468   0.496   5.580   4.302
  763SOL     OW 2469   0.959   1.584   4.215
  763SOL    HW1 2470   1.041   1.526   4.220
  763SOL    HW2 2471   0.883   1.537   4.260
  764SOL     OW 2472   2.677   2.024   1.898
  764SOL    HW1 2473   2.637   2.068   1.818
  764SOL    HW2 2474   2.700   2.093   1.966
  765SOL     OW 2475   2.644   0.528   4.607
  765SOL    HW1 2476   2.712   0.599   4.620
  765SOL    HW2 2477   2.687   0.438   4.619
  766SOL     OW 2478   2.005   5.023   1.477
  766SOL    HW1 2479   2.086   5.025   1.418
  766SOL    HW2 2480   1.956   5.109   1.466
  767SOL     OW 2481   0.776   4.266   4.351
  767SOL    HW1 2482   0.833   4.208   4.293
  767SOL    HW2 2483   0.807   4.361   4.344
  768SOL     OW 2484   3.012   1.836   3.189
  768SOL    HW1 2485   2.936   1.778   3.220
  768SOL    HW2 2486   2.995   1.930   3.217
  769SOL     OW 2487   0.410   3.153   5.526
  769SOL    HW1 2488   0.428   3.203   5.442
  769SOL    HW2 2489   0.439   3.058   5.515
  770SOL     OW 2490   5.155   0.547   1.230
  770SOL    HW1 2491   5.194   0.615   1.169
  770SOL    HW2 2492   5.096   0.593   1.297
  771SOL     OW 2493   1.579   5.411   0.644
  771SOL    HW1 2494   1.669   5.453   0.630
  771SOL    HW2 2495   1.571   5.329   0.587
  772SOL     OW 2496   2.170   5.132   4.697
  772SOL    HW1 2497   2.114   5.204   4.738
  772SOL    HW2 2498   2.150   5.127   4.599
  773SOL     OW 2499   0.757   4.592   4.534
  773SOL    HW1 2500   0.807   4.635   4.458
  773SOL    HW2 2501   0.804   4.508   4.561
  774SOL     OW 2502   2.644   2.307   2.854
  774SOL    HW1 2503   2.720   2.250   2.821
  774SOL    HW2 2504   2.679   2.368   2.925
  775SOL     OW 2505   2.695   2.348   1.719
  775SOL    HW1 2506   2.775   2.331   1.661
  775SOL    HW2 2507   2.696   2.283   1.795
  776SOL     OW 2508   4.176   4.309   2.657
  776SOL    HW1 2509   4.081   4.323   2.627
  776SOL    HW2 2510   4.198   4.376   2.727
  777SOL     OW 2511   4.002   0.719   2.071
  777SOL    HW1 2512   3.997   0.817   2.092
  777SOL    HW2 2513   4.090   0.683   2.103
  778SOL     OW 2514   2.513   3.061   1.463
  778SOL    HW1 2515   2.445   3.134   1.458
  778SOL    HW2 2516   2.466   2.972   1.465
  779SOL     OW 2517   2.859   4.588   4.351
  779SOL    HW1 2518   2.800   4.510   4.374
  779SOL    HW2 2519   2.802   4.670   4.340
  780SOL     OW 2520   4.930   4.223   2.336
  780SOL    HW1 2521   4.983   4.287   2.281
  780SOL    HW2 2522   4.954   4.235   2.432
  781SOL     OW 2523   4.613   2.482   3.018
  781SOL    HW1 2524   4.596   2.580   3.011
  781SOL    HW2 2525   4.630   2.445   2.927
  782SOL     OW 2526   5.490   3.610   4.795
  782SOL    HW1 2527   5.434   3.691   4.776
  782SOL    HW2 2528   5.482   3.586   4.891
  783SOL     OW 2529   0.889   2.551   1.372
  783SOL    HW1 2530   0.798   2.555   1.413
  783SOL    HW2 2531   0.897   2.468   1.318
  784SOL     OW 2532   3.484   5.227   1.856
  784SOL    HW1 2533   3.579   5.213   1.829
  784SOL    HW2 2534   3.477   5.312   1.907
  785SOL     OW 2535   4.167   2.901   5.080
  785SOL    HW1 2536   4.118   2.982   5.047
  785SOL    HW2 2537   4.106   2.821   5.073
  786SOL     OW 2538   1.577   3.395   3.977
  786SOL    HW1 2539   1.514   3.376   4.053
  786SOL    HW2 2540   1.669   3.369   4.004
  787SOL     OW 2541   0.634   2.587   1.986
  787SOL    HW1 2542   0.559   2.554   2.044
  787SOL    HW2 2543   0.617   2.559   1.891
  788SOL     OW 2544   4.186   4.079   2.487
  788SOL    HW1 2545   4.151   3.994   2.446
  788SOL    HW2 2546   4.249   4.055   2.561
  789SOL     OW 2547   4.061   4.027   4.940
  789SOL    HW1 2548   4.049   3.934   4.907
  789SOL    HW2 2549   4.133   4.072   4.887
  790SOL     OW 2550   3.524   4.430   1.882
  790SOL    HW1 2551   3.558   4.524   1.874
  790SOL    HW2 2552   3.589   4.368   1.838
  791SOL     OW 2553   3.062   5.454   5.324
  791SOL    HW1 2554   3.111   5.394   5.386
  791SOL    HW2 2555   3.067   5.548   5.359
  792SOL     OW 2556   3.810   2.696   0.334
  792SOL    HW1 2557   3.766   2.619   0.379
  792SOL    HW2 2558   3.772   2.707   0.242
  793SOL     OW 2559   0.452   3.162   2.401
  793SOL    HW1 2560   0.536   3.215   2.407
  793SOL    HW2 2561   0.474   3.064   2.405
  794SOL     OW 2562   4.643   0.296   4.356
  794SOL    HW1 2563   4.620   0.210   4.402
  794SOL    HW2 2564   4.642   0.370   4.423
  795SOL     OW 2565   2.918   3.142   1.608
  795SOL    HW1 2566   3.017   3.150   1.607
  795SOL    HW2 2567   2.878   3.233   1.607
  796SOL     OW 2568   1.602   3.096   1.236
  796SOL    HW1 2569   1.587   3.004   1.272
  796SOL    HW2 2570   1.689   3.131   1.271
  797SOL     OW 2571   4.108   5.580   1.047
  797SOL    HW1 2572   4.180   5.648   1.055
  797SOL    HW2 2573   4.146   5.498   1.004
  798SOL     OW 2574   3.050   3.740   2.754
  798SOL    HW1 2575   3.052   3.640   2.757
  798SOL    HW2 2576   3.068   3.771   2.661
  799SOL     OW 2577   1.618   5.306   3.354
  799SOL    HW1 2578   1.524   5.284   3.378
  799SOL    HW2 2579   1.660   5.359   3.428
  800SOL     OW 2580   1.812   1.185   4.884
  800SOL    HW1 2581   1.896   1.237   4.905
  800SOL    HW2 2582   1.838   1.093   4.854
  801SOL     OW 2583   1.483   3.996   2.546
  801SOL    HW1 2584   1.502   3.946   2.631
  801SOL    HW2 2585   1.408   3.951   2.498
  802SOL     OW 2586   3.204   0.336   2.095
  802SOL    HW1 2587   3.219   0.393   2.014
  802SOL    HW2 2588   3.223   0.390   2.177
  803SOL     OW 2589   1.136   0.758   0.172
  803SOL    HW1 2590   1.047   0.718   0.150
  803SOL    HW2 2591   1.133   0.857   0.157
  804SOL     OW 2592   1.299   0.473   3.147
  804SOL    HW1 2593   1.312   0.377   3.172
  804SOL    HW2 2594   1.315   0.530   3.227
  805SOL     OW 2595   3.112   0.416   5.437
  805SOL    HW1 2596   3.032   0.380   5.485
  805SOL    HW2 2597   3.147   0.347   5.375
  806SOL     OW 2598   0.329   0.973   3.943
  806SOL    HW1 2599   0.388   0.893   3.952
  806SOL    HW2 2600   0.265   0.959   3.868
  807SOL     OW 2601   4.719   0.975   4.532
  807SOL    HW1 2602   4.665   0.892   4.516
  807SOL    HW2 2603   4.657   1.053   4.540
  808SOL     OW 2604   5.292   2.112   0.260
  808SOL    HW1 2605   5.246   2.163   0.187
  808SOL    HW2 2606   5.223   2.076   0.322
  809SOL     OW 2607   4.630   5.561   4.861
  809SOL    HW1 2608   4.696   5.546   4.934
  809SOL    HW2 2609   4.657   5.642   4.808
  810SOL     OW 2610   1.115   2.102   4.581
  810SOL    HW1 2611   1.142   2.198   4.579
  810SOL    HW2 2612   1.197   2.045   4.581
  811SOL     OW 2613   1.099   1.809   2.952
  811SOL    HW1 2614   1.068   1.904   2.955
  811SOL    HW2 2615   1.199   1.808   2.948
  812SOL     OW 2616   1.029   5.003   2.561
  812SOL    HW1 2617   1.021   5.102   2.577
  812SOL    HW2 2618   1.082   4.962   2.636
  813SOL     OW 2619   2.187   0.861   0.239
  813SOL    HW1 2620   2.171   0.766   0.269
  813SOL    HW2 2621   2.284   0.873   0.218
  814SOL     OW 2622   4.777   5.290   0.559
  814SOL    HW1 2623   4.772   5.359   0.631
  814SOL    HW2 2624   4.686   5.275   0.521
  815SOL     OW 2625   0.431   3.573   5.648
  815SOL    HW1 2626   0.399   3.668   5.650
  815SOL    HW2 2627   0.352   3.512   5.646
  816SOL     OW 2628   0.407   1.222   2.479
  816SOL    HW1 2629   0.388   1.236   2.576
  816SOL    HW2 2630   0.333   1.262   2.424
  817SOL     OW 2631   0.936   0.976   0.839
  817SOL    HW1 2632   0.895   0.905   0.783
  817SOL    HW2 2633   1.007   1.023   0.785
  818SOL     OW 2634   5.365   5.438   3.619
  818SOL    HW1 2635   5.280   5.490   3.603
  818SOL    HW2 2636   5.398   5.403   3.531
  819SOL     OW 2637   2.889   5.482   0.866
  819SOL    HW1 2638   2.878   5.581   0.870
  819SOL    HW2 2639   2.798   5.439   0.867
  820SOL     OW 2640   5.337   0.648   3.123
  820SOL    HW1 2641   5.352   0.713   3.197
  820SOL    HW2 2642   5.341   0.697   3.036
  821SOL     OW 2643   3.176   1.907   0.150
  821SOL    HW1 2644   3.103   1.909   0.219
  821SOL    HW2 2645   3.264   1.913   0.196
  822SOL     OW 2646   1.979   3.676   2.493
  822SOL    HW1 2647   1.889   3.719   2.484
  822SOL    HW2 2648   1.967   3.576   2.492
  823SOL     OW 2649   3.459   4.740   1.862
  823SOL    HW1 2650   3.430   4.780   1.775
  823SOL    HW2 2651   3.388   4.679   1.896
  824SOL     OW 2652   0.804   3.702   3.658
  824SOL    HW1 2653   0.894   3.659   3.644
  824SOL    HW2 2654   0.815   3.801   3.661
  825SOL     OW 2655   1.772   4.817   3.990
  825SOL    HW1 2656   1.683   4.807   4.035
  825SOL    HW2 2657   1.834   4.746   4.022
  826SOL     OW 2658   5.380   2.132   1.643
  826SOL    HW1 2659   5.433   2.052   1.670
  826SOL    HW2 2660   5.286   2.122   1.677
  827SOL     OW 2661   3.052   4.980   0.225
  827SOL    HW1 2662   3.020   5.067   0.188
  827SOL    HW2 2663   3.071   4.917   0.150
  828SOL     OW 2664   0.490   2.301   2.934
  828SOL    HW1 2665   0.396   2.309   2.900
  828SOL    HW2 2666   0.501   2.211   2.977
  829SOL     OW 2667   2.185   1.139   1.541
  829SOL    HW1 2668   2.150   1.199   1.470
  829SOL    HW2 2669   2.123   1.141   1.619
  830SOL     OW 2670   5.375   2.507   3.184
  830SOL    HW1 2671   5.276   2.494   3.190
  830SOL    HW2 2672   5.393   2.593   3.135
  831SOL     OW 2673   1.466   3.905   0.800
  831SOL    HW1 2674   1.541   3.839   0.795
  831SOL    HW2 2675   1.503   3.997   0.802
  832SOL     OW 2676   4.864   1.482   3.226
  832SOL    HW1 2677   4.919   1.398   3.224
  832SOL    HW2 2678   4.925   1.561   3.226
  833SOL     OW 2679   1.586   1.574   5.486
  833SOL    HW1 2680   1.604   1.657   5.538
  833SOL    HW2 2681   1.667   1.551   5.431
  834SOL     OW 2682   4.626   1.072   1.669
  834SOL    HW1 2683   4.537   1.026   1.672
  834SOL    HW2 2684   4.613   1.171   1.666
  835SOL     OW 2685   2.097   5.529   0.281
  835SOL    HW1 2686   2.005   5.559   0.256
  835SOL    HW2 2687   2.162   5.602   0.260
  836SOL     OW 2688   1.208   2.135   3.768
  836SOL    HW1 2689   1.219   2.232   3.788
  836SOL    HW2 2690   1.111   2.111   3.770
  837SOL     OW 2691   1.342   0.471   2.186
  837SOL    HW1 2692   1.392   0.540   2.135
  837SOL    HW2 2693   1.263   0.441   2.133
  838SOL     OW 2694   0.916   1.247   2.110
  838SOL    HW1 2695   0.905   1.347   2.110
  838SOL    HW2 2696   0.966   1.219   2.192
  839SOL     OW 2697   2.732   5.130   5.317
  839SOL    HW1 2698   2.829   5.115   5.335
  839SOL    HW2 2699   2.715   5.228   5.305
  840SOL     OW 2700   0.396   1.729   3.525
  840SOL    HW1 2701   0.312   1.781   3.545
  840SOL    HW2 2702   0.371   1.633   3.510
  841SOL     OW 2703   1.019   0.895   4.898
  841SOL    HW1 2704   1.116   0.910   4.919
  841SOL    HW2 2705   1.010   0.874   4.800
  842SOL     OW 2706   2.559   3.599   2.388
  842SOL    HW1 2707   2.562   3.586   2.487
  842SOL    HW2 2708   2.591   3.515   2.343
  843SOL     OW 2709   0.425   1.141   5.472
  843SOL    HW1 2710   0.433   1.232   5.513
  843SOL    HW2 2711   0.504   1.086   5.500
  844SOL     OW 2712   4.210   2.666   2.181
  844SOL    HW1 2713   4.287   2.708   2.230
  844SOL    HW2 2714   4.238   2.646   2.087
  845SOL     OW 2715   0.755   3.004   5.622
  845SOL    HW1 2716   0.796   3.091   5.650
  845SOL    HW2 2717   0.722   3.012   5.528
  846SOL     OW 2718   3.411   2.663   3.804
  846SOL    HW1 2719   3.319   2.654   3.841
  846SOL    HW2 2720   3.471   2.702   3.873
  847SOL     OW 2721   3.320   1.054   2.326
  847SOL    HW1 2722   3.346   1.123   2.393
  847SOL    HW2 2723   3.394   1.044   2.259
  848SOL     OW 2724   3.883   0.487   3.354
  848SOL    HW1 2725   3.826   0.480   3.273
  848SOL    HW2 2726   3.926   0.577   3.357
  849SOL     OW 2727   4.007   1.752   3.913
  849SOL    HW1 2728   4.034   1.847   3.899
  849SOL    HW2 2729   4.027   1.700   3.830
  850SOL     OW 2730   3.683   0.572   5.377
  850SOL    HW1 2731   3.722   0.523   5.299
  850SOL    HW2 2732   3.622   0.643   5.343
  851SOL     OW 2733   2.831   3.093   3.827
  851SOL    HW1 2734   2.754   3.100   3.764
  851SOL    HW2 2735   2.874   3.182   3.838
  852SOL     OW 2736   4.543   4.792   0.679
  852SOL    HW1 2737   4.613   4.785   0.750
  852SOL    HW2 2738   4.582   4.837   0.599
  853SOL     OW 2739   4.278   2.960   2.288
  853SOL    HW1 2740   4.200   2.913   2.247
  853SOL    HW2 2741   4.280   2.942   2.386
  854SOL     OW 2742   0.847   2.855   1.174
  854SOL    HW1 2743   0.795   2.770   1.166
  854SOL    HW2 2744   0.941   2.834   1.200
  855SOL     OW 2745   3.556   2.439   2.875
  855SOL    HW1 2746   3.483   2.426   2.941
  855SOL    HW2 2747   3.525   2.408   2.785
  856SOL     OW 2748   3.751   3.956   4.791
  856SOL    HW1 2749   3.713   4.048   4.780
  856SOL    HW2 2750   3.845   3.964   4.827
  857SOL     OW 2751   2.609   3.416   1.296
  857SOL    HW1 2752   2.531   3.461   1.339
  857SOL    HW2 2753   2.589   3.401   1.199
  858SOL     OW 2754   3.571   0.443   2.594
  858SOL    HW1 2755   3.600   0.359   2.549
  858SOL    HW2 2756   3.534   0.506   2.525
  859SOL     OW 2757   3.389   2.916   4.872
  859SOL    HW1 2758   3.393   2.825   4.832
  859SOL    HW2 2759   3.445   2.918   4.955
  860SOL     OW 2760   0.700   1.932   3.676
  860SOL    HW1 2761   0.612   1.966   3.710
  860SOL    HW2 2762   0.696   1.832   3.670
  861SOL     OW 2763   1.574   3.068   0.596
  861SOL    HW1 2764   1.501   3.016   0.553
  861SOL    HW2 2765   1.601   3.023   0.681
  862SOL     OW 2766   1.041   3.111   0.713
  862SOL    HW1 2767   1.135   3.082   0.697
  862SOL    HW2 2768   0.983   3.030   0.720
  863SOL     OW 2769   3.763   4.270   3.059
  863SOL    HW1 2770   3.729   4.364   3.056
  863SOL    HW2 2771   3.843   4.263   3.000
  864SOL     OW 2772   1.871   4.862   4.618
  864SOL    HW1 2773   1.826   4.800   4.682
  864SOL    HW2 2774   1.918   4.934   4.669
  865SOL     OW 2775   1.636   1.912   0.269
  865SOL    HW1 2776   1.583   1.834   0.302
  865SOL    HW2 2777   1.714   1.926   0.330
  866SOL     OW 2778   4.093   2.777   1.867
  866SOL    HW1 2779   4.114   2.681   1.881
  866SOL    HW2 2780   4.002   2.785   1.825
  867SOL     OW 2781   5.457   2.736   5.095
  867SOL    HW1 2782   5.544   2.777   5.122
  867SOL    HW2 2783   5.390   2.808   5.080
  868SOL     OW 2784   3.168   0.981   1.597
  868SOL    HW1 2785   3.188   0.885   1.617
  868SOL    HW2 2786   3.070   0.992   1.586
  869SOL     OW 2787   5.581   1.990   3.345
  869SOL    HW1 2788   5.554   1.896   3.365
  869SOL    HW2 2789   5.559   2.048   3.423
  870SOL     OW 2790   2.626   1.218   4.727
  870SOL    HW1 2791   2.719   1.182   4.728
  870SOL    HW2 2792   2.623   1.303   4.780
  871SOL     OW 2793   0.521   4.966   0.209
  871SOL    HW1 2794   0.570   4.885   0.239
  871SOL    HW2 2795   0.580   5.046   0.219
  872SOL     OW 2796   4.176   5.110   3.147
  872SOL    HW1 2797   4.137   5.120   3.239
  872SOL    HW2 2798   4.272   5.136   3.150
  873SOL     OW 2799   1.461   4.702   3.808
  873SOL    HW1 2800   1.492   4.607   3.812
  873SOL    HW2 2801   1.365   4.704   3.780
  874SOL     OW 2802   5.557   3.422   4.419
  874SOL    HW1 2803   5.650   3.453   4.438
  874SOL    HW2 2804   5.559   3.358   4.342
  875SOL     OW 2805   1.735   5.419   2.676
  875SOL    HW1 2806   1.811   5.484   2.673
  875SOL    HW2 2807   1.769   5.328   2.653
  876SOL     OW 2808   5.446   2.906   2.051
  876SOL    HW1 2809   5.359   2.937   2.090
  876SOL    HW2 2810   5.514   2.978   2.061
  877SOL     OW 2811   2.232   4.641   4.968
  877SOL    HW1 2812   2.314   4.614   4.917
  877SOL    HW2 2813   2.260   4.682   5.055
  878SOL     OW 2814   1.889   2.916   1.149
  878SOL    HW1 2815   1.898   2.816   1.147
  878SOL    HW2 2816   1.979   2.957   1.132
  879SOL     OW 2817   3.097   0.296   3.906
  879SOL    HW1 2818   3.009   0.339   3.926
  879SOL    HW2 2819   3.101   0.206   3.951
  880SOL     OW 2820   0.283   1.741   0.999
  880SOL    HW1 2821   0.262   1.839   0.989
  880SOL    HW2 2822   0.198   1.689   0.992
  881SOL     OW 2823   5.207   2.253   3.454
  881SOL    HW1 2824   5.206   2.153   3.453
  881SOL    HW2 2825   5.302   2.285   3.460
  882SOL     OW 2826   5.324   0.751   4.127
  882SOL    HW1 2827   5.332   0.789   4.220
  882SOL    HW2 2828   5.268   0.812   4.072
  883SOL     OW 2829   2.734   1.266   1.579
  883SOL    HW1 2830   2.753   1.199   1.507
  883SOL    HW2 2831   2.649   1.313   1.558
  884SOL     OW 2832   1.812   4.008   0.769
  884SOL    HW1 2833   1.861   4.074   0.713
  884SOL    HW2 2834   1.720   4.044   0.789
  885SOL     OW 2835   3.678   0.241   0.981
  885SOL    HW1 2836   3.627   0.155   0.972
  885SOL    HW2 2837   3.613   0.316   0.994
  886SOL     OW 2838   4.728   3.353   2.596
  886SOL    HW1 2839   4.686   3.443   2.592
  886SOL    HW2 2840   4.824   3.361   2.568
  887SOL     OW 2841   2.063   1.019   3.815
  887SOL    HW1 2842   2.130   0.945   3.808
  887SOL    HW2 2843   1.971   0.980   3.816
  888SOL     OW 2844   4.181   3.425   0.356
  888SOL    HW1 2845   4.234   3.345   0.382
  888SOL    HW2 2846   4.084   3.401   0.354
  889SOL     OW 2847   5.529   5.405   4.121
  889SOL    HW1 2848   5.515   5.448   4.031
  889SOL    HW2 2849   5.535   5.306   4.109
  890SOL     OW 2850   2.991   3.413   4.710
  890SOL    HW1 2851   2.961   3.332   4.761
  890SOL    HW2 2852   2.943   3.493   4.746
  891SOL     OW 2853   2.423   4.707   1.013
  891SOL    HW1 2854   2.458   4.620   0.978
  891SOL    HW2 2855   2.500   4.761   1.048
  892SOL     OW 2856   2.043   1.715   2.776
  892SOL    HW1 2857   2.143   1.721   2.772
  892SOL    HW2 2858   2.004   1.807   2.769
  893SOL     OW 2859   2.128   3.556   3.124
  893SOL    HW1 2860   2.202   3.527   3.185
  893SOL    HW2 2861   2.102   3.650   3.146
  894SOL     OW 2862   0.966   2.232   1.005
  894SOL    HW1 2863   0.880   2.217   1.054
  894SOL    HW2 2864   1.017   2.305   1.050
  895SOL     OW 2865   3.523   5.504   5.414
  895SOL    HW1 2866   3.595   5.572   5.396
  895SOL    HW2 2867   3.441   5.551   5.445
  896SOL     OW 2868   2.987   4.715   2.140
  896SOL    HW1 2869   3.083   4.724   2.114
  896SOL    HW2 2870   2.956   4.802   2.179
  897SOL     OW 2871   0.793   1.053   4.369
  897SOL    HW1 2872   0.746   1.004   4.295
  897SOL    HW2 2873   0.800   1.150   4.345
  898SOL     OW 2874   1.733   3.442   1.498
  898SOL    HW1 2875   1.696   3.366   1.444
  898SOL    HW2 2876   1.712   3.427   1.595
  899SOL     OW 2877   2.384   1.419   0.454
  899SOL    HW1 2878   2.378   1.519   0.462
  899SOL    HW2 2879   2.480   1.392   0.450
  900SOL     OW 2880   1.102   0.385   3.238
  900SOL    HW1 2881   1.078   0.457   3.302
  900SOL    HW2 2882   1.070   0.297   3.274
  901SOL     OW 2883   2.301   2.648   1.080
  901SOL    HW1 2884   2.319   2.747   1.078
  901SOL    HW2 2885   2.342   2.606   1.000
  902SOL     OW 2886   0.631   2.734   5.448
  902SOL    HW1 2887   0.729   2.752   5.463
  902SOL    HW2 2888   0.611   2.747   5.351
  903SOL     OW 2889   1.783   0.548   5.048
  903SOL    HW1 2890   1.729   0.464   5.043
  903SOL    HW2 2891   1.872   0.528   5.087
  904SOL     OW 2892   4.730   0.657   5.134
  904SOL    HW1 2893   4.786   0.705   5.202
  904SOL    HW2 2894   4.770   0.568   5.115
  905SOL     OW 2895   4.230   2.496   3.750
  905SOL    HW1 2896   4.226   2.596   3.756
  905SOL    HW2 2897   4.312   2.464   3.798
  906SOL     OW 2898   3.166   1.445   5.302
  906SOL    HW1 2899   3.181   1.525   5.244
  906SOL    HW2 2900   3.078   1.404   5.279
  907SOL     OW 2901   5.554   3.966   4.531
  907SOL    HW1 2902   5.645   3.974   4.570
  907SOL    HW2 2903   5.521   3.872   4.542
  908SOL     OW 2904   5.059   1.224   1.945
  908SOL    HW1 2905   4.969   1.266   1.942
  908SOL    HW2 2906   5.050   1.125   1.937
  909SOL     OW 2907   2.134   2.738   4.885
  909SOL    HW1 2908   2.073   2.817   4.872
  909SOL    HW2 2909   2.099   2.681   4.959
  910SOL     OW 2910   3.472   2.351   2.218
  910SOL    HW1 2911   3.568   2.378   2.218
  910SOL    HW2 2912   3.466   2.251   2.223
  911SOL     OW 2913   5.340   2.321   1.810
  911SOL    HW1 2914   5.381   2.350   1.724
  911SOL    HW2 2915   5.251   2.367   1.821
  912SOL     OW 2916   2.601   1.558   5.485
  912SOL    HW1 2917   2.627   1.462   5.489
  912SOL    HW2 2918   2.501   1.565   5.485
  913SOL     OW 2919   1.250   3.627   5.353
  913SOL    HW1 2920   1.182   3.700   5.343
  913SOL    HW2 2921   1.290   3.631   5.444
  914SOL     OW 2922   3.496   0.417   3.257
  914SOL    HW1 2923   3.422   0.467   3.301
  914SOL    HW2 2924   3.473   0.320   3.256
  915SOL     OW 2925   5.122   4.977   1.504
  915SOL    HW1 2926   5.160   4.894   1.462
  915SOL    HW2 2927   5.140   4.976   1.602
  916SOL     OW 2928   0.928   4.768   0.557
  916SOL    HW1 2929   1.012   4.717   0.540
  916SOL    HW2 2930   0.872   4.768   0.474
  917SOL     OW 2931   3.446   2.433   0.895
  917SOL    HW1 2932   3.500   2.413   0.977
  917SOL    HW2 2933   3.352   2.451   0.920
  918SOL     OW 2934   5.435   5.196   1.285
  918SOL    HW1 2935   5.336   5.180   1.282
  918SOL    HW2 2936   5.482   5.109   1.276
  919SOL     OW 2937   3.101   5.209   2.380
  919SOL    HW1 2938   3.004   5.189   2.367
  919SOL    HW2 2939   3.151   5.123   2.389
  920SOL     OW 2940   4.307   3.768   2.658
  920SOL    HW1 2941   4.228   3.741   2.602
  920SOL    HW2 2942   4.318   3.867   2.652
  921SOL     OW 2943   3.351   3.983   1.895
  921SOL    HW1 2944   3.397   3.916   1.836
  921SOL    HW2 2945   3.260   3.949   1.918
  922SOL     OW 2946   3.703   3.474   2.421
  922SOL    HW1 2947   3.800   3.456   2.404
  922SOL    HW2 2948   3.649   3.398   2.386
  923SOL     OW 2949   4.236   2.047   5.082
  923SOL    HW1 2950   4.335   2.041   5.070
  923SOL    HW2 2951   4.197   2.100   5.007
  924SOL     OW 2952   1.048   3.855   4.608
  924SOL    HW1 2953   1.083   3.947   4.594
  924SOL    HW2 2954   1.028   3.842   4.705
  925SOL     OW 2955   2.910   2.932   1.223
  925SOL    HW1 2956   2.986   2.870   1.244
  925SOL    HW2 2957   2.825   2.879   1.217
  926SOL     OW 2958   0.189   0.241   5.038
  926SOL    HW1 2959   0.150   0.150   5.024
  926SOL    HW2 2960   0.288   0.237   5.021
  927SOL     OW 2961   0.518   3.766   3.039
  927SOL    HW1 2962   0.451   3.840   3.034
  927SOL    HW2 2963   0.609   3.805   3.048
  928SOL     OW 2964   2.854   5.135   5.579
  928SOL    HW1 2965   2.932   5.187   5.545
  928SOL    HW2 2966   2.887   5.061   5.637
  929SOL     OW 2967   4.821   3.015   3.550
  929SOL    HW1 2968   4.760   3.091   3.528
  929SOL    HW2 2969   4.868   3.035   3.636
  930SOL     OW 2970   3.100   2.620   0.171
  930SOL    HW1 2971   3.023   2.567   0.207
  930SOL    HW2 2972   3.070   2.713   0.150
  931SOL     OW 2973   3.941   1.967   1.962
  931SOL    HW1 2974   3.853   2.014   1.960
  931SOL    HW2 2975   3.941   1.900   2.036
  932SOL     OW 2976   2.828   0.231   3.686
  932SOL    HW1 2977   2.889   0.154   3.669
  932SOL    HW2 2978   2.881   0.306   3.728
  933SOL     OW 2979   3.626   4.430   4.410
  933SOL    HW1 2980   3.612   4.471   4.320
  933SOL    HW2 2981   3.599   4.334   4.407
  934SOL     OW 2982   3.130   1.216   4.265
  934SOL    HW1 2983   3.157   1.297   4.214
  934SOL    HW2 2984   3.066   1.161   4.210
  935SOL     OW 2985   5.420   4.261   2.583
  935SOL    HW1 2986   5.405   4.330   2.654
  935SOL    HW2 2987   5.494   4.291   2.523
  936SOL     OW 2988   4.213   4.313   3.672
  936SOL    HW1 2989   4.172   4.245   3.611
  936SOL    HW2 2990   4.221   4.274   3.764
  937SOL     OW 2991   4.312   1.859   0.242
  937SOL    HW1 2992   4.407   1.887   0.252
  937SOL    HW2 2993   4.299   1.821   0.150
  938SOL     OW 2994   2.680   3.848   0.806
  938SOL    HW1 2995   2.589   3.889   0.803
  938SOL    HW2 2996   2.673   3.755   0.843
  939SOL     OW 2997   3.064   4.929   4.434
  939SOL    HW1 2998   3.113   5.001   4.483
  939SOL    HW2 2999   3.129   4.859   4.405
  940SOL     OW 3000   3.947   2.012   1.328
  940SOL    HW1 3001   3.957   2.025   1.230
  940SOL    HW2 3002   4.001   1.933   1.356
  941SOL     OW 3003   0.545   4.117   2.115
  941SOL    HW1 3004   0.620   4.103   2.050
  941SOL    HW2 3005   0.546   4.042   2.181
  942SOL     OW 3006   1.385   2.054   1.454
  942SOL    HW1 3007   1.429   1.964   1.454
  942SOL    HW2 3008   1.455   2.125   1.454
  943SOL     OW 3009   2.165   0.951   4.197
  943SOL    HW1 3010   2.246   0.923   4.146
  943SOL    HW2 3011   2.087   0.894   4.169
  944SOL     OW 3012   0.723   3.962   1.862
  944SOL    HW1 3013   0.793   4.028   1.836
  944SOL    HW2 3014   0.637   3.985   1.818
  945SOL     OW 3015   0.268   3.376   5.006
  945SOL    HW1 3016   0.321   3.440   4.952
  945SOL    HW2 3017   0.262   3.288   4.958
  946SOL     OW 3018   4.429   4.079   5.275
  946SOL    HW1 3019   4.513   4.134   5.276
  946SOL    HW2 3020   4.354   4.134   5.311
  947SOL     OW 3021   3.058   5.345   2.899
  947SOL    HW1 3022   3.126   5.314   2.966
  947SOL    HW2 3023   3.096   5.420   2.845
  948SOL     OW 3024   5.231   2.381   1.431
  948SOL    HW1 3025   5.295   2.457   1.443
  948SOL    HW2 3026   5.275   2.295   1.456
  949SOL     OW 3027   0.883   2.576   4.814
  949SOL    HW1 3028   0.974   2.552   4.780
  949SOL    HW2 3029   0.867   2.528   4.900
  950SOL     OW 3030   0.252   0.657   4.522
  950SOL    HW1 3031   0.343   0.622   4.500
  950SOL    HW2 3032   0.223   0.720   4.450
  951SOL     OW 3033   2.103   1.934   1.099
  951SOL    HW1 3034   2.004   1.924   1.107
  951SOL    HW2 3035   2.138   1.865   1.035
  952SOL     OW 3036   3.711   3.103   2.436
  952SOL    HW1 3037   3.658   3.083   2.518
  952SOL    HW2 3038   3.720   3.018   2.382
  953SOL     OW 3039   5.171   2.788   4.628
  953SOL    HW1 3040   5.172   2.884   4.598
  953SOL    HW2 3041   5.165   2.729   4.547
  954SOL     OW 3042   4.055   5.119   4.260
  954SOL    HW1 3043   4.041   5.028   4.299
  954SOL    HW2 3044   3.967   5.166   4.254
  955SOL     OW 3045   5.213   3.159   5.449
  955SOL    HW1 3046   5.303   3.192   5.479
  955SOL    HW2 3047   5.153   3.154   5.529
  956SOL     OW 3048   2.318   5.092   0.555
  956SOL    HW1 3049   2.366   5.010   0.583
  956SOL    HW2 3050   2.241   5.108   0.617
  957SOL     OW 3051   1.120   3.968   2.912
  957SOL    HW1 3052   1.134   4.065   2.931
  957SOL    HW2 3053   1.030   3.940   2.945
  958SOL     OW 3054   1.226   4.243   4.066
  958SOL    HW1 3055   1.320   4.236   4.031
  958SOL    HW2 3056   1.189   4.332   4.040
  959SOL     OW 3057   2.183   3.097   2.153
  959SOL    HW1 3058   2.276   3.078   2.120
  959SOL    HW2 3059   2.140   3.011   2.181
  960SOL     OW 3060   1.456   2.105   3.923
  960SOL    HW1 3061   1.535   2.159   3.949
  960SOL    HW2 3062   1.456   2.020   3.976
  961SOL     OW 3063   5.591   2.870   3.797
  961SOL    HW1 3064   5.549   2.909   3.715
  961SOL    HW2 3065   5.630   2.944   3.852
  962SOL     OW 3066   2.808   2.956   1.444
  962SOL    HW1 3067   2.763   3.041   1.419
  962SOL    HW2 3068   2.907   2.969   1.440
  963SOL     OW 3069   2.822   1.775   5.025
  963SOL    HW1 3070   2.764   1.718   5.083
  963SOL    HW2 3071   2.792   1.768   4.930
  964SOL     OW 3072   1.775   3.632   3.978
  964SOL    HW1 3073   1.687   3.585   3.970
  964SOL    HW2 3074   1.845   3.565   4.004
  965SOL     OW 3075   2.894   3.466   0.597
  965SOL    HW1 3076   2.819   3.531   0.583
  965SOL    HW2 3077   2.858   3.373   0.593
  966SOL     OW 3078   0.210   3.554   0.794
  966SOL    HW1 3079   0.150   3.592   0.864
  966SOL    HW2 3080   0.214   3.454   0.804
  967SOL     OW 3081   3.800   0.705   5.025
  967SOL    HW1 3082   3.704   0.677   5.028
  967SOL    HW2 3083   3.844   0.682   5.111
  968SOL     OW 3084   1.579   1.288   4.236
  968SOL    HW1 3085   1.582   1.207   4.178
  968SOL    HW2 3086   1.581   1.370   4.179
  969SOL     OW 3087   1.652   1.031   5.581
  969SOL    HW1 3088   1.725   1.087   5.621
  969SOL    HW2 3089   1.693   0.949   5.540
  970SOL     OW 3090   0.416   1.255   0.608
  970SOL    HW1 3091   0.408   1.342   0.558
  970SOL    HW2 3092   0.369   1.184   0.556
  971SOL     OW 3093   5.482   1.644   5.611
  971SOL    HW1 3094   5.405   1.621   5.552
  971SOL    HW2 3095   5.520   1.561   5.650
  972SOL     OW 3096   0.567   2.090   0.896
  972SOL    HW1 3097   0.514   2.072   0.980
  972SOL    HW2 3098   0.622   2.009   0.875
  973SOL     OW 3099   0.533   5.450   1.796
  973SOL    HW1 3100   0.480   5.370   1.768
  973SOL    HW2 3101   0.474   5.531   1.793
  974SOL     OW 3102   2.490   0.849   5.155
  974SOL    HW1 3103   2.425   0.824   5.084
  974SOL    HW2 3104   2.541   0.930   5.126
  975SOL     OW 3105   1.666   0.227   3.535
  975SOL    HW1 3106   1.742   0.162   3.526
  975SOL    HW2 3107   1.691   0.296   3.603
  976SOL     OW 3108   5.222   2.309   4.862
  976SOL    HW1 3109   5.158   2.385   4.845
  976SOL    HW2 3110   5.170   2.224   4.869
  977SOL     OW 3111   3.840   4.430   2.855
  977SOL    HW1 3112   3.788   4.515   2.857
  977SOL    HW2 3113   3.933   4.448   2.887
  978SOL     OW 3114   5.447   2.292   0.428
  978SOL    HW1 3115   5.458   2.239   0.343
  978SOL    HW2 3116   5.368   2.257   0.478
  979SOL     OW 3117   1.734   2.385   5.271
  979SOL    HW1 3118   1.677   2.304   5.255
  979SOL    HW2 3119   1.676   2.465   5.281
  980SOL     OW 3120   2.175   5.341   3.978
  980SOL    HW1 3121   2.100   5.377   3.923
  980SOL    HW2 3122   2.247   5.307   3.918
  981SOL     OW 3123   0.810   4.641   4.157
  981SOL    HW1 3124   0.789   4.719   4.098
  981SOL    HW2 3125   0.724   4.599   4.186
  982SOL     OW 3126   4.482   4.321   2.748
  982SOL    HW1 3127   4.420   4.325   2.827
  982SOL    HW2 3128   4.571   4.357   2.774
  983SOL     OW 3129   5.120   1.411   3.494
  983SOL    HW1 3130   5.176   1.339   3.535
  983SOL    HW2 3131   5.175   1.493   3.481
  984SOL     OW 3132   2.054   0.609   1.321
  984SOL    HW1 3133   2.144   0.569   1.305
  984SOL    HW2 3134   2.054   0.702   1.284
  985SOL     OW 3135   4.604   4.068   2.403
  985SOL    HW1 3136   4.674   4.140   2.404
  985SOL    HW2 3137   4.645   3.983   2.437
  986SOL     OW 3138   3.917   0.251   2.258
  986SOL    HW1 3139   3.998   0.272   2.313
  986SOL    HW2 3140   3.913   0.153   2.242
  987SOL     OW 3141   3.458   3.578   1.901
  987SOL    HW1 3142   3.437   3.674   1.882
  987SOL    HW2 3143   3.415   3.552   1.988
  988SOL     OW 3144   3.388   5.048   3.060
  988SOL    HW1 3145   3.384   4.950   3.042
  988SOL    HW2 3146   3.447   5.065   3.139
  989SOL     OW 3147   3.844   0.187   3.656
  989SOL    HW1 3148   3.763   0.243   3.640
  989SOL    HW2 3149   3.876   0.150   3.568
  990SOL     OW 3150   4.262   3.961   3.829
  990SOL    HW1 3151   4.266   4.040   3.768
  990SOL    HW2 3152   4.298   3.987   3.919
  991SOL     OW 3153   4.916   3.880   3.436
  991SOL    HW1 3154   4.880   3.879   3.342
  991SOL    HW2 3155   4.855   3.827   3.495
  992SOL     OW 3156   2.201   5.374   4.196
  992SOL    HW1 3157   2.191   5.473   4.188
  992SOL    HW2 3158   2.298   5.352   4.203
  993SOL     OW 3159   3.781   4.901   2.045
  993SOL    HW1 3160   3.791   4.897   2.144
  993SOL    HW2 3161   3.684   4.899   2.021
  994SOL     OW 3162   3.425   2.041   1.320
  994SOL    HW1 3163   3.351   2.103   1.291
  994SOL    HW2 3164   3.437   1.969   1.251
  995SOL     OW 3165   1.075   3.897   3.630
  995SOL    HW1 3166   1.157   3.841   3.634
  995SOL    HW2 3167   1.098   3.992   3.651
  996SOL     OW 3168   0.847   3.972   3.805
  996SOL    HW1 3169   0.785   3.909   3.851
  996SOL    HW2 3170   0.810   4.065   3.811
  997SOL     OW 3171   1.438   4.110   3.632
  997SOL    HW1 3172   1.473   4.103   3.725
  997SOL    HW2 3173   1.509   4.080   3.568
  998SOL     OW 3174   5.362   3.875   4.950
  998SOL    HW1 3175   5.273   3.830   4.960
  998SOL    HW2 3176   5.356   3.967   4.989
  999SOL     OW 3177   5.358   3.055   2.643
  999SOL    HW1 3178   5.426   2.987   2.614
  999SOL    HW2 3179   5.274   3.041   2.592
 1000SOL     OW 3180   4.699   0.709   2.380
 1000SOL    HW1 3181   4.795   0.687   2.365
 1000SOL    HW2 3182   4.687   0.808   2.379
 1001SOL     OW 3183   1.984   4.378   0.872
 1001SOL    HW1 3184   1.904   4.325   0.900
 1001SOL    HW2 3185   2.065   4.319   0.873
 1002SOL     OW 3186   2.949   1.087   2.418
 1002SOL    HW1 3187   2.886   1.022   2.461
 1002SOL    HW2 3188   3.018   1.037   2.366
 1003SOL     OW 3189   2.928   1.304   2.354
 1003SOL    HW1 3190   2.899   1.325   2.448
 1003SOL    HW2 3191   3.027   1.312   2.348
 1004SOL     OW 3192   0.537   5.591   2.408
 1004SOL    HW1 3193   0.580   5.513   2.361
 1004SOL    HW2 3194   0.451   5.562   2.448
 1005SOL     OW 3195   5.251   0.647   4.961
 1005SOL    HW1 3196   5.351   0.653   4.964
 1005SOL    HW2 3197   5.224   0.551   4.973
 1006SOL     OW 3198   5.161   3.253   1.064
 1006SOL    HW1 3199   5.088   3.320   1.048
 1006SOL    HW2 3200   5.165   3.231   1.161
 1007SOL     OW 3201   2.577   0.607   1.361
 1007SOL    HW1 3202   2.614   0.587   1.271
 1007SOL    HW2 3203   2.528   0.526   1.395
 1008SOL     OW 3204   1.740   3.439   5.340
 1008SOL    HW1 3205   1.657   3.434   5.284
 1008SOL    HW2 3206   1.806   3.372   5.307
 1009SOL     OW 3207   4.009   1.522   0.531
 1009SOL    HW1 3208   4.074   1.586   0.572
 1009SOL    HW2 3209   3.921   1.568   0.521
 1010SOL     OW 3210   3.084   0.534   4.548
 1010SOL    HW1 3211   3.090   0.434   4.543
 1010SOL    HW2 3212   2.988   0.560   4.551
 1011SOL     OW 3213   2.885   5.217   1.038
 1011SOL    HW1 3214   2.805   5.265   1.001
 1011SOL    HW2 3215   2.878   5.120   1.014
 1012SOL     OW 3216   1.713   1.236   5.457
 1012SOL    HW1 3217   1.802   1.221   5.413
 1012SOL    HW2 3218   1.641   1.236   5.387
 1013SOL     OW 3219   2.997   2.535   5.646
 1013SOL    HW1 3220   2.956   2.444   5.636
 1013SOL    HW2 3221   3.097   2.525   5.650
 1014SOL     OW 3222   1.440   3.083   1.506
 1014SOL    HW1 3223   1.358   3.105   1.560
 1014SOL    HW2 3224   1.514   3.059   1.568
 1015SOL     OW 3225   4.123   2.397   1.483
 1015SOL    HW1 3226   4.136   2.301   1.509
 1015SOL    HW2 3227   4.123   2.404   1.384
 1016SOL     OW 3228   3.538   2.127   5.594
 1016SOL    HW1 3229   3.579   2.054   5.650
 1016SOL    HW2 3230   3.504   2.087   5.509
 1017SOL     OW 3231   5.559   4.195   1.779
 1017SOL    HW1 3232   5.588   4.288   1.802
 1017SOL    HW2 3233   5.639   4.142   1.751
 1018SOL     OW 3234   0.760   0.246   1.865
 1018SOL    HW1 3235   0.748   0.317   1.796
 1018SOL    HW2 3236   0.670   0.214   1.895
 1019SOL     OW 3237   0.433   4.583   2.494
 1019SOL    HW1 3238   0.358   4.519   2.475
 1019SOL    HW2 3239   0.396   4.675   2.506
 1020SOL     OW 3240   0.687   1.354   1.803
 1020SOL    HW1 3241   0.739   1.269   1.804
 1020SOL    HW2 3242   0.743   1.428   1.841
 1021SOL     OW 3243   3.123   5.298   4.015
 1021SOL    HW1 3244   3.082   5.287   4.106
 1021SOL    HW2 3245   3.170   5.213   3.991
 1022SOL     OW 3246   4.158   2.972   4.079
 1022SOL    HW1 3247   4.255   2.979   4.058
 1022SOL    HW2 3248   4.139   3.022   4.164
 1023SOL     OW 3249   4.190   2.534   5.650
 1023SOL    HW1 3250   4.151   2.453   5.607
 1023SOL    HW2 3251   4.187   2.610   5.585
 1024SOL     OW 3252   0.431   0.698   0.397
 1024SOL    HW1 3253   0.505   0.636   0.424
 1024SOL    HW2 3254   0.365   0.647   0.342
 1025SOL     OW 3255   4.990   5.562   3.725
 1025SOL    HW1 3256   5.083   5.551   3.759
 1025SOL    HW2 3257   4.935   5.482   3.750
 1026SOL     OW 3258   2.090   0.452   4.575
 1026SOL    HW1 3259   2.054   0.405   4.656
 1026SOL    HW2 3260   2.183   0.421   4.557
 1027SOL     OW 3261   2.809   3.580   5.197
 1027SOL    HW1 3262   2.879   3.522   5.240
 1027SOL    HW2 3263   2.735   3.595   5.262
 1028SOL     OW 3264   4.691   0.438   2.604
 1028SOL    HW1 3265   4.631   0.415   2.527
 1028SOL    HW2 3266   4.784   0.410   2.583
 1029SOL     OW 3267   3.237   5.006   4.128
 1029SOL    HW1 3268   3.304   5.074   4.099
 1029SOL    HW2 3269   3.202   5.030   4.219
 1030SOL     OW 3270   4.115   2.803   4.245
 1030SOL    HW1 3271   4.049   2.728   4.240
 1030SOL    HW2 3272   4.208   2.764   4.247
 1031SOL     OW 3273   2.818   4.194   4.588
 1031SOL    HW1 3274   2.747   4.171   4.654
 1031SOL    HW2 3275   2.908   4.186   4.633
 1032SOL     OW 3276   4.936   5.153   3.978
 1032SOL    HW1 3277   4.905   5.248   3.978
 1032SOL    HW2 3278   5.036   5.151   3.978
 1033SOL     OW 3279   4.448   4.289   1.540
 1033SOL    HW1 3280   4.348   4.293   1.547
 1033SOL    HW2 3281   4.486   4.381   1.546
 1034SOL     OW 3282   0.843   0.242   0.793
 1034SOL    HW1 3283   0.897   0.163   0.820
 1034SOL    HW2 3284   0.895   0.325   0.812
 1035SOL     OW 3285   1.426   1.423   4.563
 1035SOL    HW1 3286   1.476   1.510   4.561
 1035SOL    HW2 3287   1.491   1.347   4.568
 1036SOL     OW 3288   1.694   1.909   5.332
 1036SOL    HW1 3289   1.603   1.880   5.363
 1036SOL    HW2 3290   1.689   2.005   5.303
 1037SOL     OW 3291   1.611   4.724   3.061
 1037SOL    HW1 3292   1.700   4.694   3.095
 1037SOL    HW2 3293   1.610   4.824   3.055
 1038SOL     OW 3294   4.758   4.291   1.144
 1038SOL    HW1 3295   4.844   4.243   1.161
 1038SOL    HW2 3296   4.773   4.389   1.148
 1039SOL     OW 3297   2.595   5.553   5.540
 1039SOL    HW1 3298   2.573   5.648   5.563
 1039SOL    HW2 3299   2.510   5.503   5.519
 1040SOL     OW 3300   0.727   2.661   5.074
 1040SOL    HW1 3301   0.750   2.759   5.071
 1040SOL    HW2 3302   0.627   2.651   5.079
 1041SOL     OW 3303   0.926   0.464   4.701
 1041SOL    HW1 3304   0.872   0.548   4.707
 1041SOL    HW2 3305   0.865   0.386   4.691
 1042SOL     OW 3306   1.085   4.346   2.538
 1042SOL    HW1 3307   1.047   4.420   2.593
 1042SOL    HW2 3308   1.182   4.362   2.523
 1043SOL     OW 3309   4.911   5.227   5.191
 1043SOL    HW1 3310   4.948   5.243   5.283
 1043SOL    HW2 3311   4.913   5.312   5.140
 1044SOL     OW 3312   5.544   3.148   5.473
 1044SOL    HW1 3313   5.523   3.208   5.550
 1044SOL    HW2 3314   5.597   3.199   5.405
 1045SOL     OW 3315   4.253   2.500   0.949
 1045SOL    HW1 3316   4.300   2.496   1.037
 1045SOL    HW2 3317   4.217   2.591   0.934
 1046SOL     OW 3318   1.555   5.039   4.663
 1046SOL    HW1 3319   1.491   5.102   4.619
 1046SOL    HW2 3320   1.505   4.960   4.697
 1047SOL     OW 3321   4.417   4.441   5.118
 1047SOL    HW1 3322   4.443   4.401   5.205
 1047SOL    HW2 3323   4.373   4.530   5.135
 1048SOL     OW 3324   1.409   4.905   3.569
 1048SOL    HW1 3325   1.448   4.826   3.616
 1048SOL    HW2 3326   1.309   4.897   3.567
 1049SOL     OW 3327   5.005   2.897   0.965
 1049SOL    HW1 3328   5.033   2.866   1.056
 1049SOL    HW2 3329   5.040   2.989   0.949
 1050SOL     OW 3330   2.984   5.414   0.161
 1050SOL    HW1 3331   2.939   5.484   0.216
 1050SOL    HW2 3332   2.921   5.336   0.150
 1051SOL     OW 3333   0.387   4.374   3.361
 1051SOL    HW1 3334   0.291   4.394   3.341
 1051SOL    HW2 3335   0.433   4.459   3.388
 1052SOL     OW 3336   1.433   5.035   5.390
 1052SOL    HW1 3337   1.492   5.020   5.309
 1052SOL    HW2 3338   1.480   4.998   5.471
 1053SOL     OW 3339   3.166   0.405   0.332
 1053SOL    HW1 3340   3.255   0.415   0.286
 1053SOL    HW2 3341   3.179   0.415   0.430
 1054SOL     OW 3342   5.296   2.027   4.841
 1054SOL    HW1 3343   5.369   1.992   4.782
 1054SOL    HW2 3344   5.209   1.986   4.812
 1055SOL     OW 3345   5.344   0.233   0.763
 1055SOL    HW1 3346   5.259   0.281   0.785
 1055SOL    HW2 3347   5.421   0.292   0.786
 1056SOL     OW 3348   1.904   2.494   4.221
 1056SOL    HW1 3349   1.910   2.442   4.135
 1056SOL    HW2 3350   1.994   2.530   4.244
 1057SOL     OW 3351   3.180   1.877   4.528
 1057SOL    HW1 3352   3.110   1.915   4.466
 1057SOL    HW2 3353   3.258   1.846   4.475
 1058SOL     OW 3354   3.668   0.249   5.138
 1058SOL    HW1 3355   3.692   0.334   5.091
 1058SOL    HW2 3356   3.650   0.270   5.234
 1059SOL     OW 3357   0.367   3.498   0.452
 1059SOL    HW1 3358   0.299   3.564   0.484
 1059SOL    HW2 3359   0.323   3.431   0.392
 1060SOL     OW 3360   5.305   5.467   1.839
 1060SOL    HW1 3361   5.323   5.475   1.741
 1060SOL    HW2 3362   5.357   5.536   1.889
 1061ETH      C 3363   4.087   3.819   3.012
 1061ETH     C1 3364   4.021   3.954   3.039
 1061ETH      O 3365   4.114   4.042   3.098
 1061ETH      H 3366   4.173   3.832   2.946
 1061ETH     H1 3367   4.016   3.750   2.966
 1061ETH     H2 3368   4.124   3.776   3.105
 1061ETH     H3 3369   3.986   3.998   2.946
 1061ETH     H4 3370   3.936   3.942   3.106
 1061ETH     H5 3371   4.144   4.002   3.182
 1062ETH      C 3372   1.133   1.954   4.976
 1062ETH     C1 3373   1.255   2.035   4.935
 1062ETH      O 3374   1.361   2.012   5.026
 1062ETH      H 3375   1.158   1.847   4.978
 1062ETH     H1 3376   1.050   1.970   4.906
 1062ETH     H2 3377   1.101   1.981   5.077
 1062ETH     H3 3378   1.288   2.006   4.836
 1062ETH     H4 3379   1.232   2.142   4.934
 1062ETH     H5 3380   1.331   2.040   5.115
 1063ETH      C 3381   1.966   3.347   2.592
 1063ETH     C1 3382   2.086   3.320   2.501
 1063ETH      O 3383   2.056   3.215   2.411
 1063ETH      H 3384   1.879   3.373   2.531
 1063ETH     H1 3385   1.988   3.428   2.661
 1063ETH     H2 3386   1.940   3.257   2.649
 1063ETH     H3 3387   2.110   3.409   2.443
 1063ETH     H4 3388   2.173   3.292   2.561
 1063ETH     H5 3389   2.036   3.135   2.465
 1064ETH      C 3390   4.732   0.901   1.231
 1064ETH     C1 3391   4.850   0.897   1.136
 1064ETH      O 3392   4.965   0.951   1.198
 1064ETH      H 3393   4.755   0.844   1.322
 1064ETH     H1 3394   4.642   0.859   1.184
 1064ETH     H2 3395   4.711   1.004   1.262
 1064ETH     H3 3396   4.872   0.794   1.107
 1064ETH     H4 3397   4.828   0.955   1.045
 1064ETH     H5 3398   4.944   1.044   1.222
 1065ETH      C 3399   2.964   2.340   4.273
 1065ETH     C1 3400   3.022   2.273   4.149
 1065ETH      O 3401   2.931   2.282   4.042
 1065ETH      H 3402   2.942   2.445   4.253
 1065ETH     H1 3403   3.035   2.334   4.357
 1065ETH     H2 3404   2.871   2.291   4.302
 1065ETH     H3 3405   3.115   2.323   4.120
 1065ETH     H4 3406   3.045   2.168   4.169
 1065ETH     H5 3407   2.849   2.236   4.070
 1066ETH      C 3408   1.108   0.888   0.398
 1066ETH     C1 3409   1.096   0.936   0.542
 1066ETH      O 3410   1.110   1.076   0.548
 1066ETH      H 3411   1.031   0.936   0.336
 1066ETH     H1 3412   1.097   0.780   0.392
 1066ETH     H2 3413   1.205   0.916   0.356
 1066ETH     H3 3414   0.998   0.909   0.582
 1066ETH     H4 3415   1.173   0.890   0.604
 1066ETH     H5 3416   1.198   1.099   0.512
 1067ETH      C 3417   5.236   2.734   2.548
 1067ETH     C1 3418   5.326   2.714   2.427
 1067ETH      O 3419   5.455   2.674   2.469
 1067ETH      H 3420   5.228   2.641   2.606
 1067ETH     H1 3421   5.135   2.764   2.516
 1067ETH     H2 3422   5.276   2.811   2.614
 1067ETH     H3 3423   5.286   2.637   2.362
 1067ETH     H4 3424   5.334   2.807   2.370
 1067ETH     H5 3425   5.490   2.746   2.527
 1068ETH      C 3426   3.063   5.560   0.533
 1068ETH     C1 3427   3.179   5.486   0.596
 1068ETH      O 3428   3.274   5.450   0.497
 1068ETH      H 3429   3.098   5.650   0.482
 1068ETH     H1 3430   2.990   5.589   0.609
 1068ETH     H2 3431   3.014   5.497   0.458
 1068ETH     H3 3432   3.229   5.549   0.669
 1068ETH     H4 3433   3.145   5.396   0.647
 1068ETH     H5 3434   3.228   5.392   0.433
 1069ETH      C 3435   2.026   2.559   4.650
 1069ETH     C1 3436   2.086   2.423   4.617
 1069ETH      O 3437   2.159   2.429   4.496
 1069ETH      H 3438   2.106   2.634   4.658
 1069ETH     H1 3439   1.971   2.555   4.744
 1069ETH     H2 3440   1.959   2.591   4.570
 1069ETH     H3 3441   2.155   2.392   4.696
 1069ETH     H4 3442   2.008   2.348   4.608
 1069ETH     H5 3443   2.096   2.456   4.426
 1070ETH      C 3444   5.159   3.687   0.927
 1070ETH     C1 3445   5.231   3.556   0.898
 1070ETH      O 3446   5.323   3.527   1.002
 1070ETH      H 3447   5.106   3.681   1.023
 1070ETH     H1 3448   5.087   3.710   0.848
 1070ETH     H2 3449   5.231   3.769   0.935
 1070ETH     H3 3450   5.159   3.474   0.892
 1070ETH     H4 3451   5.284   3.562   0.803
 1070ETH     H5 3452   5.387   3.600   1.005
 1071ETH      C 3453   0.387   3.631   5.303
 1071ETH     C1 3454   0.264   3.719   5.288
 1071ETH      O 3455   0.257   3.770   5.156
 1071ETH      H 3456   0.384   3.548   5.231
 1071ETH     H1 3457   0.393   3.589   5.404
 1071ETH     H2 3458   0.478   3.688   5.283
 1071ETH     H3 3459   0.174   3.660   5.306
 1071ETH     H4 3460   0.267   3.801   5.359
 1071ETH     H5 3461   0.338   3.823   5.142
 1072ETH      C 3462   4.276   2.333   5.210
 1072ETH     C1 3463   4.153   2.412   5.168
 1072ETH      O 3464   4.186   2.548   5.151
 1072ETH      H 3465   4.355   2.342   5.134
 1072ETH     H1 3466   4.251   2.227   5.222
 1072ETH     H2 3467   4.316   2.371   5.304
 1072ETH     H3 3468   4.115   2.374   5.073
 1072ETH     H4 3469   4.074   2.403   5.242
 1072ETH     H5 3470   4.219   2.581   5.237
 1073ETH      C 3471   2.432   0.835   2.045
 1073ETH     C1 3472   2.469   0.786   1.906
 1073ETH      O 3473   2.512   0.894   1.825
 1073ETH      H 3474   2.518   0.884   2.092
 1073ETH     H1 3475   2.399   0.752   2.108
 1073ETH     H2 3476   2.352   0.909   2.039
 1073ETH     H3 3477   2.550   0.713   1.911
 1073ETH     H4 3478   2.383   0.738   1.858
 1073ETH     H5 3479   2.438   0.958   1.820
 1074ETH      C 3480   3.910   4.881   0.367
 1074ETH     C1 3481   3.976   4.869   0.231
 1074ETH      O 3482   4.103   4.930   0.232
 1074ETH      H 3483   3.973   4.833   0.444
 1074ETH     H1 3484   3.812   4.833   0.367
 1074ETH     H2 3485   3.899   4.986   0.395
 1074ETH     H3 3486   3.989   4.764   0.204
 1074ETH     H4 3487   3.914   4.917   0.154
 1074ETH     H5 3488   4.090   5.024   0.255
 1075ETH      C 3489   2.516   2.570   1.500
 1075ETH     C1 3490   2.514   2.649   1.370
 1075ETH      O 3491   2.527   2.562   1.259
 1075ETH      H 3492   2.435   2.496   1.500
 1075ETH     H1 3493   2.505   2.636   1.586
 1075ETH     H2 3494   2.610   2.514   1.509
 1075ETH     H3 3495   2.420   2.702   1.360
 1075ETH     H4 3496   2.595   2.722   1.368
 1075ETH     H5 3497   2.613   2.515   1.269
 1076ETH      C 3498   3.063   3.295   4.131
 1076ETH     C1 3499   3.204   3.301   4.189
 1076ETH      O 3500   3.222   3.422   4.261
 1076ETH      H 3501   2.989   3.301   4.212
 1076ETH     H1 3502   3.048   3.202   4.076
 1076ETH     H2 3503   3.046   3.379   4.064
 1076ETH     H3 3504   3.221   3.218   4.257
 1076ETH     H4 3505   3.278   3.296   4.109
 1076ETH     H5 3506   3.208   3.495   4.198
 1077ETH      C 3507   2.441   5.532   3.419
 1077ETH     C1 3508   2.312   5.461   3.379
 1077ETH      O 3509   2.274   5.369   3.479
 1077ETH      H 3510   2.427   5.584   3.514
 1077ETH     H1 3511   2.470   5.604   3.342
 1077ETH     H2 3512   2.521   5.459   3.432
 1077ETH     H3 3513   2.231   5.534   3.367
 1077ETH     H4 3514   2.324   5.409   3.284
 1077ETH     H5 3515   2.346   5.304   3.487
 1078ETH      C 3516   0.614   0.997   2.309
 1078ETH     C1 3517   0.734   1.077   2.260
 1078ETH      O 3518   0.762   1.183   2.349
 1078ETH      H 3519   0.634   0.957   2.410
 1078ETH     H1 3520   0.593   0.914   2.242
 1078ETH     H2 3521   0.526   1.061   2.317
 1078ETH     H3 3522   0.822   1.013   2.255
 1078ETH     H4 3523   0.715   1.118   2.161
 1078ETH     H5 3524   0.682   1.241   2.352
 1079ETH      C 3525   0.565   4.779   3.349
 1079ETH     C1 3526   0.713   4.743   3.354
 1079ETH      O 3527   0.761   4.718   3.223
 1079ETH      H 3528   0.550   4.868   3.286
 1079ETH     H1 3529   0.527   4.800   3.449
 1079ETH     H2 3530   0.507   4.698   3.304
 1079ETH     H3 3531   0.770   4.825   3.396
 1079ETH     H4 3532   0.728   4.655   3.415
 1079ETH     H5 3533   0.710   4.643   3.187
 1080ETH      C 3534   1.885   4.628   0.919
 1080ETH     C1 3535   1.811   4.760   0.939
 1080ETH      O 3536   1.730   4.788   0.826
 1080ETH      H 3537   1.813   4.546   0.903
 1080ETH     H1 3538   1.948   4.605   1.006
 1080ETH     H2 3539   1.948   4.633   0.830
 1080ETH     H3 3540   1.747   4.753   1.026
 1080ETH     H4 3541   1.882   4.841   0.953
 1080ETH     H5 3542   1.790   4.794   0.749
 1081ETH      C 3543   5.026   0.892   1.685
 1081ETH     C1 3544   4.890   0.867   1.621
 1081ETH      O 3545   4.872   0.953   1.511
 1081ETH      H 3546   5.106   0.875   1.611
 1081ETH     H1 3547   5.042   0.825   1.770
 1081ETH     H2 3548   5.034   0.995   1.719
 1081ETH     H3 3549   4.884   0.764   1.586
 1081ETH     H4 3550   4.810   0.884   1.694
 1081ETH     H5 3551   4.877   1.046   1.544
 1082ETH      C 3552   3.027   4.491   5.387
 1082ETH     C1 3553   3.126   4.507   5.272
 1082ETH      O 3554   3.057   4.542   5.154
 1082ETH      H 3555   2.971   4.585   5.402
 1082ETH     H1 3556   3.079   4.465   5.480
 1082ETH     H2 3557   2.954   4.413   5.364
 1082ETH     H3 3558   3.197   4.587   5.295
 1082ETH     H4 3559   3.181   4.415   5.256
 1082ETH     H5 3560   2.994   4.469   5.134
 1083ETH      C 3561   2.558   1.345   2.471
 1083ETH     C1 3562   2.552   1.221   2.559
 1083ETH      O 3563   2.419   1.174   2.568
 1083ETH      H 3564   2.520   1.321   2.371
 1083ETH     H1 3565   2.661   1.381   2.462
 1083ETH     H2 3566   2.495   1.424   2.512
 1083ETH     H3 3567   2.613   1.141   2.517
 1083ETH     H4 3568   2.589   1.243   2.659
 1083ETH     H5 3569   2.365   1.246   2.608
 1084ETH      C 3570   1.937   2.600   0.738
 1084ETH     C1 3571   2.037   2.700   0.795
 1084ETH      O 3572   2.165   2.641   0.803
 1084ETH      H 3573   1.969   2.566   0.639
 1084ETH     H1 3574   1.837   2.644   0.730
 1084ETH     H2 3575   1.932   2.511   0.802
 1084ETH     H3 3576   2.043   2.787   0.730
 1084ETH     H4 3577   2.006   2.733   0.894
 1084ETH     H5 3578   2.158   2.564   0.862
 1085ETH      C 3579   0.923   4.465   0.842
 1085ETH     C1 3580   0.775   4.430   0.851
 1085ETH      O 3581   0.696   4.544   0.824
 1085ETH      H 3582   0.946   4.504   0.743
 1085ETH     H1 3583   0.984   4.376   0.862
 1085ETH     H2 3584   0.948   4.542   0.915
 1085ETH     H3 3585   0.750   4.353   0.777
 1085ETH     H4 3586   0.750   4.391   0.950
 1085ETH     H5 3587   0.719   4.612   0.892
 1086ETH      C 3588   1.743   2.724   3.567
 1086ETH     C1 3589   1.764   2.610   3.470
 1086ETH      O 3590   1.648   2.527   3.466
 1086ETH      H 3591   1.656   2.784   3.538
 1086ETH     H1 3592   1.831   2.789   3.570
 1086ETH     H2 3593   1.724   2.686   3.668
 1086ETH     H3 3594   1.780   2.648   3.369
 1086ETH     H4 3595   1.850   2.550   3.498
 1086ETH     H5 3596   1.635   2.492   3.557
 1087ETH      C 3597   2.152   3.961   1.181
 1087ETH     C1 3598   2.106   4.106   1.197
 1087ETH      O 3599   2.094   4.167   1.070
 1087ETH      H 3600   2.080   3.905   1.120
 1087ETH     H1 3601   2.160   3.913   1.279
 1087ETH     H2 3602   2.248   3.957   1.130
 1087ETH     H3 3603   2.009   4.109   1.246
 1087ETH     H4 3604   2.177   4.162   1.257
 1087ETH     H5 3605   2.182   4.164   1.027
 1088ETH      C 3606   1.232   2.651   2.288
 1088ETH     C1 3607   1.137   2.663   2.406
 1088ETH      O 3608   1.024   2.740   2.370
 1088ETH      H 3609   1.180   2.604   2.203
 1088ETH     H1 3610   1.319   2.591   2.314
 1088ETH     H2 3611   1.265   2.750   2.255
 1088ETH     H3 3612   1.103   2.565   2.437
 1088ETH     H4 3613   1.187   2.711   2.491
 1088ETH     H5 3614   1.057   2.829   2.344
 1089ETH      C 3615   1.155   5.490   2.246
 1089ETH     C1 3616   1.288   5.562   2.230
 1089ETH      O 3617   1.395   5.475   2.259
 1089ETH      H 3618   1.151   5.403   2.179
 1089ETH     H1 3619   1.071   5.557   2.222
 1089ETH     H2 3620   1.143   5.453   2.348
 1089ETH     H3 3621   1.300   5.598   2.127
 1089ETH     H4 3622   1.293   5.649   2.297
 1089ETH     H5 3623   1.383   5.445   2.352
 1090ETH      C 3624   3.236   4.894   3.760
 1090ETH     C1 3625   3.219   5.026   3.686
 1090ETH      O 3626   3.144   5.117   3.765
 1090ETH      H 3627   3.286   4.910   3.856
 1090ETH     H1 3628   3.295   4.824   3.700
 1090ETH     H2 3629   3.139   4.850   3.781
 1090ETH     H3 3630   3.317   5.071   3.667
 1090ETH     H4 3631   3.168   5.011   3.591
 1090ETH     H5 3632   3.057   5.076   3.781
 1091ETH      C 3633   1.073   2.552   1.962
 1091ETH     C1 3634   0.938   2.596   2.017
 1091ETH      O 3635   0.946   2.613   2.157
 1091ETH      H 3636   1.150   2.626   1.986
 1091ETH     H1 3637   1.068   2.539   1.853
 1091ETH     H2 3638   1.103   2.457   2.007
 1091ETH     H3 3639   0.909   2.692   1.972
 1091ETH     H4 3640   0.861   2.523   1.994
 1091ETH     H5 3641   0.971   2.526   2.195
 1092ETH      C 3642   4.216   3.438   2.868
 1092ETH     C1 3643   4.100   3.369   2.939
 1092ETH      O 3644   4.143   3.315   3.062
 1092ETH      H 3645   4.258   3.517   2.931
 1092ETH     H1 3646   4.184   3.481   2.773
 1092ETH     H2 3647   4.296   3.366   2.849
 1092ETH     H3 3648   4.021   3.442   2.959
 1092ETH     H4 3649   4.059   3.290   2.877
 1092ETH     H5 3650   4.213   3.249   3.041
 1093ETH      C 3651   0.579   5.394   1.302
 1093ETH     C1 3652   0.635   5.365   1.440
 1093ETH      O 3653   0.775   5.344   1.432
 1093ETH      H 3654   0.627   5.482   1.259
 1093ETH     H1 3655   0.471   5.411   1.307
 1093ETH     H2 3656   0.598   5.310   1.234
 1093ETH     H3 3657   0.617   5.449   1.506
 1093ETH     H4 3658   0.588   5.276   1.483
 1093ETH     H5 3659   0.790   5.267   1.373
 1094ETH      C 3660   1.396   4.208   5.553
 1094ETH     C1 3661   1.256   4.185   5.500
 1094ETH      O 3662   1.188   4.308   5.484
 1094ETH      H 3663   1.453   4.273   5.485
 1094ETH     H1 3664   1.450   4.114   5.565
 1094ETH     H2 3665   1.392   4.259   5.650
 1094ETH     H3 3666   1.260   4.136   5.402
 1094ETH     H4 3667   1.199   4.121   5.568
 1094ETH     H5 3668   1.184   4.350   5.573
 1095ETH      C 3669   3.449   4.633   4.578
 1095ETH     C1 3670   3.480   4.769   4.517
 1095ETH      O 3671   3.369   4.815   4.442
 1095ETH      H 3672   3.362   4.640   4.643
 1095ETH     H1 3673   3.535   4.597   4.636
 1095ETH     H2 3674   3.426   4.561   4.500
 1095ETH     H3 3675   3.501   4.842   4.595
 1095ETH     H4 3676   3.567   4.763   4.451
 1095ETH     H5 3677   3.352   4.750   4.372
 1096ETH      C 3678   2.894   0.626   2.366
 1096ETH     C1 3679   2.883   0.775   2.393
 1096ETH      O 3680   2.932   0.848   2.282
 1096ETH      H 3681   2.838   0.599   2.276
 1096ETH     H1 3682   2.856   0.569   2.451
 1096ETH     H2 3683   2.998   0.598   2.349
 1096ETH     H3 3684   2.778   0.803   2.408
 1096ETH     H4 3685   2.939   0.803   2.482
 1096ETH     H5 3686   3.026   0.823   2.270
 1097ETH      C 3687   1.578   2.343   4.412
 1097ETH     C1 3688   1.722   2.347   4.463
 1097ETH      O 3689   1.737   2.258   4.572
 1097ETH      H 3690   1.552   2.241   4.381
 1097ETH     H1 3691   1.565   2.411   4.328
 1097ETH     H2 3692   1.509   2.371   4.492
 1097ETH     H3 3693   1.791   2.317   4.385
 1097ETH     H4 3694   1.748   2.448   4.496
 1097ETH     H5 3695   1.675   2.286   4.643
 1098ETH      C 3696   3.606   1.232   4.238
 1098ETH     C1 3697   3.460   1.276   4.241
 1098ETH      O 3698   3.396   1.242   4.120
 1098ETH      H 3699   3.612   1.123   4.222
 1098ETH     H1 3700   3.656   1.257   4.331
 1098ETH     H2 3701   3.658   1.280   4.155
 1098ETH     H3 3702   3.408   1.226   4.323
 1098ETH     H4 3703   3.453   1.384   4.256
 1098ETH     H5 3704   3.443   1.288   4.048
 1099ETH      C 3705   2.309   1.312   4.618
 1099ETH     C1 3706   2.234   1.445   4.620
 1099ETH      O 3707   2.099   1.424   4.656
 1099ETH      H 3708   2.304   1.265   4.716
 1099ETH     H1 3709   2.414   1.327   4.591
 1099ETH     H2 3710   2.264   1.244   4.546
 1099ETH     H3 3711   2.279   1.512   4.692
 1099ETH     H4 3712   2.238   1.492   4.522
 1099ETH     H5 3713   2.060   1.364   4.589
 1100ETH      C 3714   4.928   1.606   2.163
 1100ETH     C1 3715   4.842   1.717   2.223
 1100ETH      O 3716   4.713   1.716   2.165
 1100ETH      H 3717   4.880   1.508   2.180
 1100ETH     H1 3718   5.027   1.605   2.209
 1100ETH     H2 3719   4.938   1.619   2.056
 1100ETH     H3 3720   4.831   1.702   2.331
 1100ETH     H4 3721   4.888   1.814   2.207
 1100ETH     H5 3722   4.725   1.730   2.068
 1101ETH      C 3723   4.789   3.203   3.945
 1101ETH     C1 3724   4.683   3.102   3.987
 1101ETH      O 3725   4.743   2.978   4.018
 1101ETH      H 3726   4.862   3.216   4.025
 1101ETH     H1 3727   4.744   3.299   3.921
 1101ETH     H2 3728   4.844   3.167   3.857
 1101ETH     H3 3729   4.630   3.138   4.075
 1101ETH     H4 3730   4.610   3.087   3.907
 1101ETH     H5 3731   4.789   2.946   3.937
 1102ETH      C 3732   2.380   3.677   4.858
 1102ETH     C1 3733   2.436   3.541   4.818
 1102ETH      O 3734   2.535   3.500   4.909
 1102ETH      H 3735   2.338   3.672   4.959
 1102ETH     H1 3736   2.302   3.709   4.789
 1102ETH     H2 3737   2.459   3.752   4.860
 1102ETH     H3 3738   2.356   3.466   4.818
 1102ETH     H4 3739   2.479   3.546   4.718
 1102ETH     H5 3740   2.607   3.568   4.907
 1103ETH      C 3741   4.379   2.858   3.692
 1103ETH     C1 3742   4.336   2.979   3.773
 1103ETH      O 3743   4.319   3.091   3.688
 1103ETH      H 3744   4.304   2.835   3.615
 1103ETH     H1 3745   4.391   2.770   3.756
 1103ETH     H2 3746   4.473   2.878   3.640
 1103ETH     H3 3747   4.241   2.959   3.823
 1103ETH     H4 3748   4.410   3.002   3.849
 1103ETH     H5 3749   4.406   3.108   3.645
 1104ETH      C 3750   0.748   3.865   4.968
 1104ETH     C1 3751   0.756   3.843   4.818
 1104ETH      O 3752   0.792   3.709   4.790
 1104ETH      H 3753   0.674   3.796   5.012
 1104ETH     H1 3754   0.719   3.968   4.991
 1104ETH     H2 3755   0.844   3.843   5.015
 1104ETH     H3 3756   0.659   3.862   4.772
 1104ETH     H4 3757   0.830   3.910   4.773
 1104ETH     H5 3758   0.880   3.693   4.831
 1105ETH      C 3759   0.472   3.337   1.373
 1105ETH     C1 3760   0.408   3.472   1.402
 1105ETH      O 3761   0.456   3.569   1.311
 1105ETH      H 3762   0.450   3.305   1.271
 1105ETH     H1 3763   0.434   3.261   1.443
 1105ETH     H2 3764   0.580   3.343   1.383
 1105ETH     H3 3765   0.299   3.465   1.390
 1105ETH     H4 3766   0.429   3.504   1.504
 1105ETH     H5 3767   0.553   3.574   1.323
 1106ETH      C 3768   3.774   2.890   3.074
 1106ETH     C1 3769   3.675   2.844   2.967
 1106ETH      O 3770   3.734   2.856   2.839
 1106ETH      H 3771   3.865   2.830   3.069
 1106ETH     H1 3772   3.730   2.880   3.174
 1106ETH     H2 3773   3.802   2.994   3.057
 1106ETH     H3 3774   3.648   2.740   2.983
 1106ETH     H4 3775   3.584   2.904   2.971
 1106ETH     H5 3776   3.756   2.950   2.826
 1107ETH      C 3777   3.762   4.361   2.207
 1107ETH     C1 3778   3.707   4.222   2.237
 1107ETH      O 3779   3.617   4.182   2.136
 1107ETH      H 3780   3.813   4.361   2.109
 1107ETH     H1 3781   3.833   4.393   2.284
 1107ETH     H2 3782   3.681   4.433   2.201
 1107ETH     H3 3783   3.789   4.150   2.241
 1107ETH     H4 3784   3.656   4.222   2.333
 1107ETH     H5 3785   3.544   4.247   2.134
 1108ETH      C 3786   0.449   3.904   0.785
 1108ETH     C1 3787   0.386   3.783   0.853
 1108ETH      O 3788   0.469   3.739   0.959
 1108ETH      H 3789   0.463   3.985   0.857
 1108ETH     H1 3790   0.385   3.939   0.703
 1108ETH     H2 3791   0.547   3.879   0.745
 1108ETH     H3 3792   0.289   3.809   0.895
 1108ETH     H4 3793   0.373   3.702   0.782
 1108ETH     H5 3794   0.556   3.715   0.920
 1109ETH      C 3795   1.426   0.504   0.601
 1109ETH     C1 3796   1.362   0.635   0.643
 1109ETH      O 3797   1.430   0.744   0.583
 1109ETH      H 3798   1.423   0.494   0.492
 1109ETH     H1 3799   1.374   0.419   0.646
 1109ETH     H2 3800   1.531   0.501   0.631
 1109ETH     H3 3801   1.258   0.638   0.612
 1109ETH     H4 3802   1.366   0.647   0.752
 1109ETH     H5 3803   1.523   0.741   0.614
 1110ETH      C 3804   1.102   1.193   4.179
 1110ETH     C1 3805   1.206   1.280   4.109
 1110ETH      O 3806   1.295   1.198   4.036
 1110ETH      H 3807   1.046   1.134   4.105
 1110ETH     H1 3808   1.031   1.256   4.235
 1110ETH     H2 3809   1.150   1.123   4.247
 1110ETH     H3 3810   1.157   1.348   4.039
 1110ETH     H4 3811   1.262   1.338   4.182
 1110ETH     H5 3812   1.339   1.138   4.100
 1111ETH      C 3813   4.141   2.302   4.752
 1111ETH     C1 3814   4.236   2.414   4.793
 1111ETH      O 3815   4.325   2.443   4.687
 1111ETH      H 3816   4.085   2.332   4.662
 1111ETH     H1 3817   4.071   2.280   4.832
 1111ETH     H2 3818   4.197   2.212   4.727
 1111ETH     H3 3819   4.180   2.505   4.816
 1111ETH     H4 3820   4.293   2.385   4.881
 1111ETH     H5 3821   4.376   2.361   4.669
 1112ETH      C 3822   0.850   4.469   0.400
 1112ETH     C1 3823   0.816   4.402   0.267
 1112ETH      O 3824   0.789   4.500   0.169
 1112ETH      H 3825   0.937   4.534   0.388
 1112ETH     H1 3826   0.872   4.394   0.476
 1112ETH     H2 3827   0.767   4.531   0.434
 1112ETH     H3 3828   0.900   4.342   0.233
 1112ETH     H4 3829   0.729   4.337   0.278
 1112ETH     H5 3830   0.712   4.553   0.201
 1113ETH      C 3831   0.809   5.404   3.560
 1113ETH     C1 3832   0.826   5.443   3.414
 1113ETH      O 3833   0.772   5.572   3.392
 1113ETH      H 3834   0.860   5.476   3.624
 1113ETH     H1 3835   0.852   5.304   3.578
 1113ETH     H2 3836   0.704   5.403   3.588
 1113ETH     H3 3837   0.931   5.445   3.387
 1113ETH     H4 3838   0.775   5.372   3.349
 1113ETH     H5 3839   0.677   5.569   3.415
 1114ETH      C 3840   4.054   0.518   2.877
 1114ETH     C1 3841   4.042   0.374   2.830
 1114ETH      O 3842   4.113   0.288   2.917
 1114ETH      H 3843   4.014   0.527   2.979
 1114ETH     H1 3844   3.998   0.585   2.811
 1114ETH     H2 3845   4.158   0.548   2.880
 1114ETH     H3 3846   3.938   0.343   2.829
 1114ETH     H4 3847   4.082   0.363   2.729
 1114ETH     H5 3848   4.207   0.316   2.916
 1115ETH      C 3849   4.978   0.922   4.784
 1115ETH     C1 3850   5.068   1.039   4.820
 1115ETH      O 3851   5.200   0.994   4.845
 1115ETH      H 3852   5.017   0.871   4.695
 1115ETH     H1 3853   4.876   0.956   4.763
 1115ETH     H2 3854   4.976   0.849   4.865
 1115ETH     H3 3855   5.072   1.111   4.738
 1115ETH     H4 3856   5.031   1.090   4.909
 1115ETH     H5 3857   5.195   0.930   4.919
 1116ETH      C 3858   2.503   2.526   1.990
 1116ETH     C1 3859   2.589   2.652   1.998
 1116ETH      O 3860   2.516   2.756   2.060
 1116ETH      H 3861   2.472   2.495   2.091
 1116ETH     H1 3862   2.558   2.445   1.943
 1116ETH     H2 3863   2.412   2.545   1.933
 1116ETH     H3 3864   2.678   2.633   2.057
 1116ETH     H4 3865   2.619   2.684   1.898
 1116ETH     H5 3866   2.437   2.773   2.005
 1117ETH      C 3867   1.933   3.221   0.647
 1117ETH     C1 3868   1.852   3.248   0.521
 1117ETH      O 3869   1.855   3.386   0.491
 1117ETH      H 3870   2.037   3.254   0.633
 1117ETH     H1 3871   1.932   3.114   0.671
 1117ETH     H2 3872   1.892   3.277   0.732
 1117ETH     H3 3873   1.894   3.194   0.437
 1117ETH     H4 3874   1.748   3.217   0.535
 1117ETH     H5 3875   1.816   3.434   0.567
 1118ETH      C 3876   1.029   2.062   4.196
 1118ETH     C1 3877   1.133   1.952   4.188
 1118ETH      O 3878   1.255   1.995   4.246
 1118ETH      H 3879   1.012   2.091   4.301
 1118ETH     H1 3880   0.934   2.030   4.153
 1118ETH     H2 3881   1.064   2.151   4.143
 1118ETH     H3 3882   1.099   1.864   4.243
 1118ETH     H4 3883   1.151   1.923   4.085
 1118ETH     H5 3884   1.285   2.073   4.195
 1119ETH      C 3885   2.092   1.251   2.452
 1119ETH     C1 3886   2.041   1.307   2.584
 1119ETH      O 3887   2.082   1.442   2.599
 1119ETH      H 3888   2.054   1.311   2.368
 1119ETH     H1 3889   2.060   1.147   2.439
 1119ETH     H2 3890   2.201   1.255   2.449
 1119ETH     H3 3891   1.932   1.305   2.586
 1119ETH     H4 3892   2.078   1.249   2.668
 1119ETH     H5 3893   2.180   1.442   2.598
 1120ETH      C 3894   3.461   1.397   0.847
 1120ETH     C1 3895   3.452   1.394   0.999
 1120ETH      O 3896   3.517   1.507   1.054
 1120ETH      H 3897   3.416   1.489   0.808
 1120ETH     H1 3898   3.409   1.311   0.803
 1120ETH     H2 3899   3.565   1.396   0.815
 1120ETH     H3 3900   3.347   1.397   1.030
 1120ETH     H4 3901   3.497   1.303   1.038
 1120ETH     H5 3902   3.611   1.502   1.026
 1121ETH      C 3903   3.898   5.400   3.526
 1121ETH     C1 3904   3.779   5.307   3.546
 1121ETH      O 3905   3.663   5.364   3.491
 1121ETH      H 3906   3.913   5.418   3.419
 1121ETH     H1 3907   3.989   5.356   3.568
 1121ETH     H2 3908   3.880   5.496   3.574
 1121ETH     H3 3909   3.798   5.211   3.497
 1121ETH     H4 3910   3.763   5.288   3.652
 1121ETH     H5 3911   3.647   5.449   3.537
 1122ETH      C 3912   4.926   4.961   4.751
 1122ETH     C1 3913   4.871   4.862   4.649
 1122ETH      O 3914   4.852   4.736   4.710
 1122ETH      H 3915   4.857   4.970   4.836
 1122ETH     H1 3916   4.940   5.060   4.706
 1122ETH     H2 3917   5.022   4.926   4.790
 1122ETH     H3 3918   4.775   4.897   4.612
 1122ETH     H4 3919   4.939   4.852   4.565
 1122ETH     H5 3920   4.940   4.706   4.742
 1123ETH      C 3921   1.804   3.131   3.921
 1123ETH     C1 3922   1.726   3.037   4.013
 1123ETH      O 3923   1.612   3.103   4.065
 1123ETH      H 3924   1.739   3.165   3.839
 1123ETH     H1 3925   1.891   3.080   3.879
 1123ETH     H2 3926   1.836   3.219   3.976
 1123ETH     H3 3927   1.692   2.950   3.957
 1123ETH     H4 3928   1.789   3.003   4.095
 1123ETH     H5 3929   1.644   3.181   4.116
 1124ETH      C 3930   4.508   2.632   2.531
 1124ETH     C1 3931   4.423   2.604   2.654
 1124ETH      O 3932   4.332   2.710   2.676
 1124ETH      H 3933   4.444   2.645   2.443
 1124ETH     H1 3934   4.578   2.550   2.513
 1124ETH     H2 3935   4.564   2.725   2.544
 1124ETH     H3 3936   4.366   2.513   2.640
 1124ETH     H4 3937   4.486   2.592   2.743
 1124ETH     H5 3938   4.385   2.792   2.690
 1125ETH      C 3939   3.898   1.029   1.034
 1125ETH     C1 3940   3.946   0.999   0.892
 1125ETH      O 3941   4.079   1.042   0.875
 1125ETH      H 3942   3.963   0.978   1.106
 1125ETH     H1 3943   3.795   0.994   1.048
 1125ETH     H2 3944   3.904   1.136   1.054
 1125ETH     H3 3945   3.942   0.892   0.873
 1125ETH     H4 3946   3.882   1.049   0.819
 1125ETH     H5 3947   4.081   1.139   0.891
 1126ETH      C 3948   2.423   0.246   1.871
 1126ETH     C1 3949   2.278   0.222   1.911
 1126ETH      O 3950   2.211   0.150   1.809
 1126ETH      H 3951   2.474   0.150   1.853
 1126ETH     H1 3952   2.477   0.300   1.949
 1126ETH     H2 3953   2.428   0.303   1.778
 1126ETH     H3 3954   2.274   0.163   2.003
 1126ETH     H4 3955   2.227   0.317   1.928
 1126ETH     H5 3956   2.214   0.205   1.728
 1127ETH      C 3957   5.159   2.710   5.294
 1127ETH     C1 3958   5.153   2.837   5.378
 1127ETH      O 3959   5.125   2.804   5.513
 1127ETH      H 3960   5.236   2.643   5.333
 1127ETH     H1 3961   5.181   2.734   5.190
 1127ETH     H2 3962   5.064   2.656   5.299
 1127ETH     H3 3963   5.248   2.889   5.375
 1127ETH     H4 3964   5.075   2.904   5.341
 1127ETH     H5 3965   5.038   2.758   5.515
 1128ETH      C 3966   3.948   3.064   1.615
 1128ETH     C1 3967   4.042   3.182   1.624
 1128ETH      O 3968   4.139   3.175   1.521
 1128ETH      H 3969   3.898   3.062   1.517
 1128ETH     H1 3970   3.871   3.069   1.693
 1128ETH     H2 3971   4.003   2.970   1.625
 1128ETH     H3 3972   3.987   3.276   1.612
 1128ETH     H4 3973   4.092   3.184   1.721
 1128ETH     H5 3974   4.189   3.091   1.534
 1129ETH      C 3975   0.592   1.334   4.423
 1129ETH     C1 3976   0.443   1.339   4.451
 1129ETH      O 3977   0.374   1.395   4.341
 1129ETH      H 3978   0.611   1.273   4.333
 1129ETH     H1 3979   0.646   1.290   4.507
 1129ETH     H2 3980   0.631   1.433   4.403
 1129ETH     H3 3981   0.404   1.239   4.468
 1129ETH     H4 3982   0.423   1.400   4.540
 1129ETH     H5 3983   0.409   1.485   4.327
 1130ETH      C 3984   5.300   1.085   2.605
 1130ETH     C1 3985   5.225   1.216   2.619
 1130ETH      O 3986   5.274   1.311   2.526
 1130ETH      H 3987   5.289   1.046   2.502
 1130ETH     H1 3988   5.262   1.010   2.675
 1130ETH     H2 3989   5.406   1.100   2.623
 1130ETH     H3 3990   5.119   1.201   2.599
 1130ETH     H4 3991   5.235   1.256   2.720
 1130ETH     H5 3992   5.369   1.324   2.546
 1131ETH      C 3993   1.788   1.975   3.030
 1131ETH     C1 3994   1.743   2.001   2.887
 1131ETH      O 3995   1.835   2.087   2.823
 1131ETH      H 3996   1.888   1.930   3.031
 1131ETH     H1 3997   1.718   1.908   3.081
 1131ETH     H2 3998   1.794   2.069   3.086
 1131ETH     H3 3999   1.739   1.908   2.832
 1131ETH     H4 4000   1.644   2.047   2.886
 1131ETH     H5 4001   1.836   2.171   2.873
 1132ETH      C 4002   3.243   4.282   2.101
 1132ETH     C1 4003   3.304   4.409   2.044
 1132ETH      O 4004   3.239   4.522   2.098
 1132ETH      H 4005   3.252   4.281   2.210
 1132ETH     H1 4006   3.294   4.193   2.060
 1132ETH     H2 4007   3.137   4.276   2.077
 1132ETH     H3 4008   3.410   4.415   2.069
 1132ETH     H4 4009   3.294   4.411   1.935
 1132ETH     H5 4010   3.144   4.516   2.073
 1133ETH      C 4011   3.465   0.561   1.294
 1133ETH     C1 4012   3.551   0.439   1.325
 1133ETH      O 4013   3.648   0.471   1.422
 1133ETH      H 4014   3.416   0.596   1.386
 1133ETH     H1 4015   3.388   0.536   1.220
 1133ETH     H2 4016   3.527   0.642   1.256
 1133ETH     H3 4017   3.488   0.358   1.365
 1133ETH     H4 4018   3.600   0.403   1.235
 1133ETH     H5 4019   3.704   0.543   1.385
 1134ETH      C 4020   1.089   1.099   1.308
 1134ETH     C1 4021   1.090   0.993   1.200
 1134ETH      O 4022   0.960   0.979   1.144
 1134ETH      H 4023   1.057   1.195   1.267
 1134ETH     H1 4024   1.189   1.111   1.351
 1134ETH     H2 4025   1.019   1.073   1.387
 1134ETH     H3 4026   1.158   1.020   1.120
 1134ETH     H4 4027   1.121   0.896   1.240
 1134ETH     H5 4028   0.900   0.953   1.217
 1135ETH      C 4029   4.013   3.175   2.290
 1135ETH     C1 4030   4.049   3.323   2.288
 1135ETH      O 4031   4.179   3.341   2.235
 1135ETH      H 4032   4.019   3.134   2.189
 1135ETH     H1 4033   3.912   3.160   2.330
 1135ETH     H2 4034   4.084   3.120   2.352
 1135ETH     H3 4035   3.978   3.377   2.224
 1135ETH     H4 4036   4.044   3.365   2.388
 1135ETH     H5 4037   4.241   3.293   2.294
 1136ETH      C 4038   2.262   2.075   3.247
 1136ETH     C1 4039   2.341   1.947   3.271
 1136ETH      O 4040   2.332   1.862   3.158
 1136ETH      H 4041   2.301   2.127   3.158
 1136ETH     H1 4042   2.269   2.142   3.333
 1136ETH     H2 4043   2.157   2.052   3.228
 1136ETH     H3 4044   2.446   1.970   3.288
 1136ETH     H4 4045   2.303   1.894   3.358
 1136ETH     H5 4046   2.238   1.841   3.145
 1137ETH      C 4047   1.375   4.716   5.234
 1137ETH     C1 4048   1.233   4.675   5.271
 1137ETH      O 4049   1.141   4.729   5.177
 1137ETH      H 4050   1.400   4.681   5.134
 1137ETH     H1 4051   1.446   4.675   5.306
 1137ETH     H2 4052   1.384   4.825   5.234
 1137ETH     H3 4053   1.224   4.567   5.269
 1137ETH     H4 4054   1.207   4.711   5.370
 1137ETH     H5 4055   1.150   4.827   5.180
 1138ETH      C 4056   3.452   1.141   3.525
 1138ETH     C1 4057   3.376   1.272   3.523
 1138ETH      O 4058   3.425   1.355   3.419
 1138ETH      H 4059   3.442   1.089   3.429
 1138ETH     H1 4060   3.415   1.075   3.604
 1138ETH     H2 4061   3.559   1.159   3.542
 1138ETH     H3 4062   3.270   1.254   3.505
 1138ETH     H4 4063   3.386   1.324   3.618
 1138ETH     H5 4064   3.519   1.372   3.438
 1139ETH      C 4065   2.300   2.484   3.609
 1139ETH     C1 4066   2.165   2.483   3.679
 1139ETH      O 4067   2.061   2.504   3.585
 1139ETH      H 4068   2.303   2.405   3.532
 1139ETH     H1 4069   2.381   2.466   3.680
 1139ETH     H2 4070   2.316   2.579   3.558
 1139ETH     H3 4071   2.148   2.387   3.728
 1139ETH     H4 4072   2.161   2.562   3.755
 1139ETH     H5 4073   2.077   2.591   3.543
 1140ETH      C 4074   4.163   3.430   1.128
 1140ETH     C1 4075   4.222   3.449   1.267
 1140ETH      O 4076   4.137   3.531   1.344
 1140ETH      H 4077   4.064   3.384   1.135
 1140ETH     H1 4078   4.228   3.366   1.067
 1140ETH     H2 4079   4.151   3.526   1.078
 1140ETH     H3 4080   4.232   3.353   1.317
 1140ETH     H4 4081   4.321   3.496   1.261
 1140ETH     H5 4082   4.129   3.618   1.299
 1141ETH      C 4083   5.221   1.602   2.760
 1141ETH     C1 4084   5.122   1.645   2.654
 1141ETH      O 4085   5.186   1.724   2.556
 1141ETH      H 4086   5.303   1.545   2.714
 1141ETH     H1 4087   5.173   1.540   2.836
 1141ETH     H2 4088   5.266   1.689   2.808
 1141ETH     H3 4089   5.079   1.557   2.605
 1141ETH     H4 4090   5.040   1.702   2.699
 1141ETH     H5 4091   5.223   1.803   2.601
 1142ETH      C 4092   5.556   3.272   0.972
 1142ETH     C1 4093   5.580   3.410   0.912
 1142ETH      O 4094   5.635   3.496   1.010
 1142ETH      H 4095   5.650   3.230   1.009
 1142ETH     H1 4096   5.514   3.204   0.896
 1142ETH     H2 4097   5.487   3.278   1.056
 1142ETH     H3 4098   5.650   3.403   0.829
 1142ETH     H4 4099   5.487   3.452   0.875
 1142ETH     H5 4100   5.570   3.502   1.083
 1143ETH      C 4101   3.363   0.884   4.141
 1143ETH     C1 4102   3.216   0.867   4.108
 1143ETH      O 4103   3.147   0.812   4.219
 1143ETH      H 4104   3.376   0.949   4.228
 1143ETH     H1 4105   3.417   0.927   4.056
 1143ETH     H2 4106   3.408   0.787   4.165
 1143ETH     H3 4107   3.171   0.964   4.085
 1143ETH     H4 4108   3.202   0.801   4.022
 1143ETH     H5 4109   3.188   0.725   4.238
 1144ETH      C 4110   3.140   2.139   2.746
 1144ETH     C1 4111   3.286   2.179   2.732
 1144ETH      O 4112   3.315   2.286   2.820
 1144ETH      H 4113   3.119   2.109   2.849
 1144ETH     H1 4114   3.116   2.056   2.679
 1144ETH     H2 4115   3.075   2.223   2.723
 1144ETH     H3 4116   3.351   2.095   2.757
 1144ETH     H4 4117   3.308   2.210   2.630
 1144ETH     H5 4118   3.257   2.361   2.796
 1145ETH      C 4119   1.081   4.793   1.586
 1145ETH     C1 4120   1.126   4.815   1.730
 1145ETH      O 4121   1.264   4.847   1.733
 1145ETH      H 4122   1.100   4.883   1.527
 1145ETH     H1 4123   0.975   4.769   1.582
 1145ETH     H2 4124   1.138   4.712   1.540
 1145ETH     H3 4125   1.071   4.898   1.774
 1145ETH     H4 4126   1.109   4.726   1.790
 1145ETH     H5 4127   1.313   4.771   1.694
 1146ETH      C 4128   2.356   3.648   2.926
 1146ETH     C1 4129   2.425   3.532   2.857
 1146ETH      O 4130   2.375   3.516   2.726
 1146ETH      H 4131   2.371   3.741   2.869
 1146ETH     H1 4132   2.395   3.662   3.027
 1146ETH     H2 4133   2.248   3.631   2.931
 1146ETH     H3 4134   2.532   3.551   2.850
 1146ETH     H4 4135   2.410   3.440   2.913
 1146ETH     H5 4136   2.279   3.498   2.733
 1147ETH      C 4137   2.679   1.825   4.459
 1147ETH     C1 4138   2.532   1.788   4.454
 1147ETH      O 4139   2.504   1.715   4.336
 1147ETH      H 4140   2.741   1.735   4.456
 1147ETH     H1 4141   2.702   1.881   4.551
 1147ETH     H2 4142   2.706   1.886   4.373
 1147ETH     H3 4143   2.506   1.726   4.540
 1147ETH     H4 4144   2.469   1.878   4.456
 1147ETH     H5 4145   2.527   1.773   4.260
 1148ETH      C 4146   4.940   4.781   3.616
 1148ETH     C1 4147   4.994   4.645   3.573
 1148ETH      O 4148   5.112   4.615   3.644
 1148ETH      H 4149   4.919   4.780   3.724
 1148ETH     H1 4150   4.847   4.804   3.563
 1148ETH     H2 4151   5.013   4.859   3.598
 1148ETH     H3 4152   4.921   4.567   3.593
 1148ETH     H4 4153   5.016   4.645   3.466
 1148ETH     H5 4154   5.178   4.686   3.624
 1149ETH      C 4155   1.698   3.899   1.910
 1149ETH     C1 4156   1.788   3.983   1.820
 1149ETH      O 4157   1.874   4.062   1.899
 1149ETH      H 4158   1.759   3.834   1.974
 1149ETH     H1 4159   1.631   3.836   1.850
 1149ETH     H2 4160   1.638   3.963   1.975
 1149ETH     H3 4161   1.849   3.918   1.757
 1149ETH     H4 4162   1.728   4.048   1.756
 1149ETH     H5 4163   1.818   4.120   1.954
 1150ETH      C 4164   0.543   2.830   3.008
 1150ETH     C1 4165   0.588   2.963   2.948
 1150ETH      O 4166   0.599   2.952   2.808
 1150ETH      H 4167   0.446   2.801   2.965
 1150ETH     H1 4168   0.533   2.838   3.116
 1150ETH     H2 4169   0.614   2.751   2.984
 1150ETH     H3 4170   0.515   3.041   2.971
 1150ETH     H4 4171   0.684   2.992   2.990
 1150ETH     H5 4172   0.665   2.882   2.789
 1151ETH      C 4173   1.977   4.935   3.520
 1151ETH     C1 4174   1.861   5.034   3.523
 1151ETH      O 4175   1.852   5.101   3.399
 1151ETH      H 4176   1.963   4.862   3.440
 1151ETH     H1 4177   1.985   4.882   3.616
 1151ETH     H2 4178   2.071   4.987   3.501
 1151ETH     H3 4179   1.768   4.982   3.541
 1151ETH     H4 4180   1.875   5.107   3.603
 1151ETH     H5 4181   1.936   5.149   3.385
 1152ETH      C 4182   4.687   2.343   4.671
 1152ETH     C1 4183   4.822   2.411   4.688
 1152ETH      O 4184   4.914   2.359   4.594
 1152ETH      H 4185   4.649   2.358   4.569
 1152ETH     H1 4186   4.615   2.382   4.743
 1152ETH     H2 4187   4.697   2.235   4.686
 1152ETH     H3 4188   4.812   2.518   4.671
 1152ETH     H4 4189   4.861   2.395   4.788
 1152ETH     H5 4190   4.923   2.263   4.611
 1153ETH      C 4191   2.043   4.941   4.047
 1153ETH     C1 4192   1.994   5.017   3.925
 1153ETH      O 4193   2.005   5.157   3.947
 1153ETH      H 4194   2.147   4.967   4.069
 1153ETH     H1 4195   2.035   4.833   4.030
 1153ETH     H2 4196   1.984   4.967   4.135
 1153ETH     H3 4197   2.054   4.992   3.838
 1153ETH     H4 4198   1.890   4.993   3.903
 1153ETH     H5 4199   1.949   5.178   4.025
 1154ETH      C 4200   4.862   5.184   1.585
 1154ETH     C1 4201   4.850   5.162   1.435
 1154ETH      O 4202   4.855   5.286   1.367
 1154ETH      H 4203   4.956   5.236   1.608
 1154ETH     H1 4204   4.859   5.089   1.639
 1154ETH     H2 4205   4.780   5.248   1.621
 1154ETH     H3 4206   4.932   5.100   1.400
 1154ETH     H4 4207   4.756   5.112   1.411
 1154ETH     H5 4208   4.780   5.340   1.399
 1155ETH      C 4209   3.383   1.704   3.496
 1155ETH     C1 4210   3.240   1.666   3.462
 1155ETH      O 4211   3.217   1.680   3.323
 1155ETH      H 4212   3.453   1.641   3.441
 1155ETH     H1 4213   3.402   1.693   3.603
 1155ETH     H2 4214   3.403   1.808   3.467
 1155ETH     H3 4215   3.221   1.562   3.489
 1155ETH     H4 4216   3.169   1.729   3.516
 1155ETH     H5 4217   3.233   1.775   3.301
 1156ETH      C 4218   2.787   1.124   1.859
 1156ETH     C1 4219   2.850   1.032   1.962
 1156ETH      O 4220   2.780   1.041   2.084
 1156ETH      H 4221   2.682   1.098   1.843
 1156ETH     H1 4222   2.840   1.117   1.763
 1156ETH     H2 4223   2.790   1.228   1.893
 1156ETH     H3 4224   2.845   0.928   1.928
 1156ETH     H4 4225   2.955   1.058   1.978
 1156ETH     H5 4226   2.786   1.134   2.115
 1157ETH      C 4227   5.256   5.067   5.327
 1157ETH     C1 4228   5.369   4.981   5.272
 1157ETH      O 4229   5.479   4.982   5.360
 1157ETH      H 4230   5.225   5.030   5.425
 1157ETH     H1 4231   5.170   5.066   5.259
 1157ETH     H2 4232   5.290   5.170   5.340
 1157ETH     H3 4233   5.335   4.878   5.260
 1157ETH     H4 4234   5.401   5.017   5.174
 1157ETH     H5 4235   5.509   5.075   5.368
 1158ETH      C 4236   1.086   5.266   4.718
 1158ETH     C1 4237   1.181   5.253   4.600
 1158ETH      O 4238   1.310   5.296   4.636
 1158ETH      H 4239   1.123   5.206   4.802
 1158ETH     H1 4240   0.986   5.232   4.691
 1158ETH     H2 4241   1.081   5.370   4.752
 1158ETH     H3 4242   1.187   5.149   4.568
 1158ETH     H4 4243   1.146   5.313   4.516
 1158ETH     H5 4244   1.304   5.390   4.664
 1159ETH      C 4245   1.233   3.394   1.436
 1159ETH     C1 4246   1.203   3.379   1.585
 1159ETH      O 4247   1.182   3.243   1.617
 1159ETH      H 4248   1.322   3.335   1.410
 1159ETH     H1 4249   1.251   3.499   1.411
 1159ETH     H2 4250   1.150   3.356   1.377
 1159ETH     H3 4251   1.287   3.416   1.644
 1159ETH     H4 4252   1.114   3.437   1.612
 1159ETH     H5 4253   1.106   3.212   1.564
 1160ETH      C 4254   3.091   5.267   1.665
 1160ETH     C1 4255   3.119   5.359   1.783
 1160ETH      O 4256   3.180   5.287   1.888
 1160ETH      H 4257   3.185   5.221   1.630
 1160ETH     H1 4258   3.046   5.322   1.583
 1160ETH     H2 4259   3.025   5.186   1.695
 1160ETH     H3 4260   3.187   5.439   1.753
 1160ETH     H4 4261   3.027   5.404   1.819
 1160ETH     H5 4262   3.117   5.216   1.915
 1161ETH      C 4263   4.129   2.281   4.298
 1161ETH     C1 4264   4.053   2.412   4.280
 1161ETH      O 4265   4.053   2.484   4.401
 1161ETH      H 4266   4.232   2.301   4.330
 1161ETH     H1 4267   4.131   2.224   4.205
 1161ETH     H2 4268   4.082   2.220   4.376
 1161ETH     H3 4269   4.101   2.473   4.204
 1161ETH     H4 4270   3.950   2.393   4.249
 1161ETH     H5 4271   4.008   2.429   4.469
 1162ETH      C 4272   1.033   3.384   4.116
 1162ETH     C1 4273   1.004   3.531   4.090
 1162ETH      O 4274   0.928   3.545   3.971
 1162ETH      H 4275   0.940   3.328   4.126
 1162ETH     H1 4276   1.091   3.372   4.208
 1162ETH     H2 4277   1.089   3.341   4.033
 1162ETH     H3 4278   0.946   3.573   4.172
 1162ETH     H4 4279   1.096   3.588   4.080
 1162ETH     H5 4280   0.981   3.508   3.898
 1163ETH      C 4281   1.286   0.463   2.825
 1163ETH     C1 4282   1.292   0.583   2.732
 1163ETH      O 4283   1.240   0.697   2.798
 1163ETH      H 4284   1.344   0.483   2.917
 1163ETH     H1 4285   1.327   0.374   2.776
 1163ETH     H2 4286   1.183   0.442   2.856
 1163ETH     H3 4287   1.395   0.604   2.704
 1163ETH     H4 4288   1.234   0.564   2.642
 1163ETH     H5 4289   1.147   0.677   2.821
 1164ETH      C 4290   1.175   1.835   5.571
 1164ETH     C1 4291   1.316   1.891   5.557
 1164ETH      O 4292   1.407   1.787   5.527
 1164ETH      H 4293   1.146   1.785   5.478
 1164ETH     H1 4294   1.104   1.915   5.593
 1164ETH     H2 4295   1.171   1.760   5.650
 1164ETH     H3 4296   1.320   1.964   5.477
 1164ETH     H4 4297   1.347   1.940   5.650
 1164ETH     H5 4298   1.404   1.722   5.601
 1165ETH      C 4299   4.431   2.023   3.087
 1165ETH     C1 4300   4.413   1.877   3.123
 1165ETH      O 4301   4.484   1.846   3.241
 1165ETH      H 4302   4.396   2.087   3.169
 1165ETH     H1 4303   4.376   2.049   2.996
 1165ETH     H2 4304   4.537   2.046   3.072
 1165ETH     H3 4305   4.307   1.855   3.139
 1165ETH     H4 4306   4.449   1.813   3.042
 1165ETH     H5 4307   4.578   1.865   3.224
 1166ETH      C 4308   3.283   3.330   2.577
 1166ETH     C1 4309   3.290   3.206   2.489
 1166ETH      O 4310   3.423   3.159   2.481
 1166ETH      H 4311   3.320   3.307   2.677
 1166ETH     H1 4312   3.180   3.366   2.584
 1166ETH     H2 4313   3.346   3.409   2.536
 1166ETH     H3 4314   3.228   3.126   2.531
 1166ETH     H4 4315   3.253   3.228   2.388
 1166ETH     H5 4316   3.477   3.230   2.442
 1167ETH      C 4317   3.151   4.223   2.653
 1167ETH     C1 4318   3.244   4.219   2.773
 1167ETH      O 4319   3.227   4.334   2.853
 1167ETH      H 4320   3.046   4.229   2.687
 1167ETH     H1 4321   3.163   4.134   2.591
 1167ETH     H2 4322   3.170   4.312   2.593
 1167ETH     H3 4323   3.223   4.131   2.834
 1167ETH     H4 4324   3.348   4.214   2.740
 1167ETH     H5 4325   3.247   4.412   2.797
 1168ETH      C 4326   1.644   1.736   4.460
 1168ETH     C1 4327   1.564   1.865   4.449
 1168ETH      O 4328   1.426   1.836   4.444
 1168ETH      H 4329   1.615   1.681   4.550
 1168ETH     H1 4330   1.751   1.758   4.466
 1168ETH     H2 4331   1.625   1.672   4.374
 1168ETH     H3 4332   1.582   1.928   4.536
 1168ETH     H4 4333   1.592   1.920   4.360
 1168ETH     H5 4334   1.411   1.780   4.365
 1169ETH      C 4335   1.330   1.685   0.999
 1169ETH     C1 4336   1.240   1.562   0.999
 1169ETH      O 4337   1.161   1.560   1.116
 1169ETH      H 4338   1.269   1.776   1.005
 1169ETH     H1 4339   1.391   1.689   0.909
 1169ETH     H2 4340   1.395   1.685   1.087
 1169ETH     H3 4341   1.174   1.564   0.912
 1169ETH     H4 4342   1.300   1.471   0.994
 1169ETH     H5 4343   1.222   1.556   1.193
 1170ETH      C 4344   4.240   1.180   1.993
 1170ETH     C1 4345   4.139   1.089   1.926
 1170ETH      O 4346   4.204   0.975   1.872
 1170ETH      H 4347   4.294   1.126   2.072
 1170ETH     H1 4348   4.191   1.268   2.036
 1170ETH     H2 4349   4.315   1.214   1.920
 1170ETH     H3 4350   4.066   1.054   2.000
 1170ETH     H4 4351   4.086   1.141   1.847
 1170ETH     H5 4352   4.268   1.008   1.805
 1171ETH      C 4353   4.992   1.425   0.889
 1171ETH     C1 4354   5.062   1.297   0.847
 1171ETH      O 4355   5.174   1.273   0.930
 1171ETH      H 4356   4.960   1.418   0.994
 1171ETH     H1 4357   4.905   1.444   0.826
 1171ETH     H2 4358   5.060   1.510   0.882
 1171ETH     H3 4359   4.994   1.212   0.856
 1171ETH     H4 4360   5.095   1.304   0.743
 1171ETH     H5 4361   5.235   1.349   0.919
 1172ETH      C 4362   0.347   4.419   0.679
 1172ETH     C1 4363   0.305   4.287   0.743
 1172ETH      O 4364   0.303   4.184   0.647
 1172ETH      H 4365   0.447   4.409   0.634
 1172ETH     H1 4366   0.350   4.499   0.754
 1172ETH     H2 4367   0.278   4.446   0.600
 1172ETH     H3 4368   0.376   4.260   0.822
 1172ETH     H4 4369   0.206   4.296   0.788
 1172ETH     H5 4370   0.239   4.210   0.578
 1173ETH      C 4371   1.426   4.338   2.353
 1173ETH     C1 4372   1.460   4.269   2.484
 1173ETH      O 4373   1.588   4.210   2.477
 1173ETH      H 4374   1.501   4.415   2.330
 1173ETH     H1 4375   1.327   4.385   2.358
 1173ETH     H2 4376   1.427   4.266   2.271
 1173ETH     H3 4377   1.460   4.342   2.566
 1173ETH     H4 4378   1.386   4.192   2.508
 1173ETH     H5 4379   1.586   4.144   2.405
 1174ETH      C 4380   3.906   3.536   4.575
 1174ETH     C1 4381   3.968   3.544   4.437
 1174ETH      O 4382   3.975   3.416   4.378
 1174ETH      H 4383   3.805   3.492   4.569
 1174ETH     H1 4384   3.899   3.635   4.621
 1174ETH     H2 4385   3.966   3.471   4.640
 1174ETH     H3 4386   3.907   3.608   4.372
 1174ETH     H4 4387   4.068   3.586   4.442
 1174ETH     H5 4388   4.031   3.360   4.436
 1175ETH      C 4389   3.198   1.491   5.545
 1175ETH     C1 4390   3.262   1.626   5.518
 1175ETH      O 4391   3.186   1.729   5.579
 1175ETH      H 4392   3.192   1.473   5.653
 1175ETH     H1 4393   3.257   1.411   5.499
 1175ETH     H2 4394   3.097   1.488   5.506
 1175ETH     H3 4395   3.363   1.630   5.559
 1175ETH     H4 4396   3.268   1.645   5.411
 1175ETH     H5 4397   3.096   1.726   5.540
 1176ETH      C 4398   2.964   4.984   2.627
 1176ETH     C1 4399   2.826   5.048   2.635
 1176ETH      O 4400   2.752   4.990   2.741
 1176ETH      H 4401   3.018   4.997   2.722
 1176ETH     H1 4402   3.023   5.028   2.547
 1176ETH     H2 4403   2.955   4.876   2.610
 1176ETH     H3 4404   2.836   5.155   2.655
 1176ETH     H4 4405   2.772   5.034   2.542
 1176ETH     H5 4406   2.743   4.894   2.721
 1177ETH      C 4407   1.853   0.828   1.517
 1177ETH     C1 4408   1.703   0.825   1.545
 1177ETH      O 4409   1.634   0.899   1.446
 1177ETH      H 4410   1.874   0.786   1.418
 1177ETH     H1 4411   1.907   0.770   1.593
 1177ETH     H2 4412   1.890   0.930   1.518
 1177ETH     H3 4413   1.666   0.722   1.542
 1177ETH     H4 4414   1.681   0.867   1.643
 1177ETH     H5 4415   1.667   0.991   1.450
 1178ETH      C 4416   4.209   2.403   3.261
 1178ETH     C1 4417   4.221   2.550   3.223
 1178ETH      O 4418   4.149   2.630   3.314
 1178ETH      H 4419   4.248   2.387   3.363
 1178ETH     H1 4420   4.266   2.340   3.192
 1178ETH     H2 4421   4.105   2.372   3.261
 1178ETH     H3 4422   4.326   2.581   3.226
 1178ETH     H4 4423   4.183   2.566   3.122
 1178ETH     H5 4424   4.055   2.602   3.310
 1179ETH      C 4425   2.933   1.619   2.439
 1179ETH     C1 4426   3.028   1.738   2.428
 1179ETH      O 4427   3.145   1.700   2.358
 1179ETH      H 4428   2.906   1.584   2.339
 1179ETH     H1 4429   2.842   1.648   2.492
 1179ETH     H2 4430   2.981   1.537   2.491
 1179ETH     H3 4431   2.981   1.820   2.374
 1179ETH     H4 4432   3.056   1.774   2.527
 1179ETH     H5 4433   3.188   1.628   2.409
 1180ETH      C 4434   1.477   2.962   3.723
 1180ETH     C1 4435   1.431   2.890   3.848
 1180ETH      O 4436   1.309   2.823   3.824
 1180ETH      H 4437   1.489   2.890   3.640
 1180ETH     H1 4438   1.573   3.012   3.740
 1180ETH     H2 4439   1.403   3.035   3.691
 1180ETH     H3 4440   1.505   2.815   3.878
 1180ETH     H4 4441   1.418   2.960   3.930
 1180ETH     H5 4442   1.243   2.891   3.799
 1181ETH      C 4443   3.760   0.358   0.519
 1181ETH     C1 4444   3.618   0.409   0.541
 1181ETH      O 4445   3.569   0.469   0.423
 1181ETH      H 4446   3.761   0.285   0.437
 1181ETH     H1 4447   3.798   0.310   0.610
 1181ETH     H2 4448   3.826   0.440   0.491
 1181ETH     H3 4449   3.552   0.326   0.567
 1181ETH     H4 4450   3.616   0.482   0.622
 1181ETH     H5 4451   3.628   0.544   0.402
 1182ETH      C 4452   5.067   0.559   0.599
 1182ETH     C1 4453   4.931   0.494   0.574
 1182ETH      O 4454   4.948   0.356   0.546
 1182ETH      H 4455   5.117   0.509   0.684
 1182ETH     H1 4456   5.055   0.665   0.622
 1182ETH     H2 4457   5.132   0.547   0.512
 1182ETH     H3 4458   4.868   0.504   0.661
 1182ETH     H4 4459   4.882   0.542   0.489
 1182ETH     H5 4460   5.004   0.349   0.466
 1183ETH      C 4461   2.458   5.057   2.663
 1183ETH     C1 4462   2.322   5.029   2.600
 1183ETH      O 4463   2.237   4.967   2.694
 1183ETH      H 4464   2.446   5.122   2.751
 1183ETH     H1 4465   2.524   5.106   2.591
 1183ETH     H2 4466   2.504   4.964   2.696
 1183ETH     H3 4467   2.276   5.123   2.568
 1183ETH     H4 4468   2.333   4.965   2.513
 1183ETH     H5 4469   2.280   4.883   2.721
 1184ETH      C 4470   3.531   0.808   3.107
 1184ETH     C1 4471   3.631   0.700   3.068
 1184ETH      O 4472   3.735   0.693   3.163
 1184ETH      H 4473   3.490   0.788   3.206
 1184ETH     H1 4474   3.449   0.813   3.034
 1184ETH     H2 4475   3.581   0.905   3.111
 1184ETH     H3 4476   3.581   0.603   3.066
 1184ETH     H4 4477   3.673   0.719   2.969
 1184ETH     H5 4478   3.780   0.781   3.163
 1185ETH      C 4479   4.393   5.284   3.633
 1185ETH     C1 4480   4.260   5.341   3.585
 1185ETH      O 4481   4.170   5.354   3.694
 1185ETH      H 4482   4.436   5.348   3.710
 1185ETH     H1 4483   4.463   5.274   3.550
 1185ETH     H2 4484   4.377   5.185   3.678
 1185ETH     H3 4485   4.276   5.440   3.542
 1185ETH     H4 4486   4.216   5.277   3.509
 1185ETH     H5 4487   4.156   5.264   3.730
 1186ETH      C 4488   0.632   2.268   3.463
 1186ETH     C1 4489   0.569   2.345   3.348
 1186ETH      O 4490   0.542   2.259   3.239
 1186ETH      H 4491   0.564   2.188   3.495
 1186ETH     H1 4492   0.652   2.334   3.548
 1186ETH     H2 4493   0.725   2.221   3.431
 1186ETH     H3 4494   0.475   2.391   3.379
 1186ETH     H4 4495   0.636   2.425   3.314
 1186ETH     H5 4496   0.628   2.220   3.211
 1187ETH      C 4497   3.376   2.917   3.716
 1187ETH     C1 4498   3.498   3.006   3.733
 1187ETH      O 4499   3.471   3.110   3.824
 1187ETH      H 4500   3.347   2.875   3.813
 1187ETH     H1 4501   3.397   2.836   3.647
 1187ETH     H2 4502   3.291   2.975   3.679
 1187ETH     H3 4503   3.582   2.948   3.772
 1187ETH     H4 4504   3.528   3.049   3.637
 1187ETH     H5 4505   3.396   3.163   3.788
 1188ETH      C 4506   2.490   1.624   2.238
 1188ETH     C1 4507   2.407   1.750   2.258
 1188ETH      O 4508   2.474   1.863   2.206
 1188ETH      H 4509   2.511   1.609   2.131
 1188ETH     H1 4510   2.438   1.536   2.277
 1188ETH     H2 4511   2.587   1.634   2.288
 1188ETH     H3 4512   2.311   1.740   2.207
 1188ETH     H4 4513   2.387   1.766   2.364
 1188ETH     H5 4514   2.559   1.871   2.255
 1189ETH      C 4515   0.580   2.896   1.872
 1189ETH     C1 4516   0.447   2.910   1.944
 1189ETH      O 4517   0.429   3.043   1.988
 1189ETH      H 4518   0.583   2.964   1.785
 1189ETH     H1 4519   0.595   2.793   1.837
 1189ETH     H2 4520   0.663   2.923   1.938
 1189ETH     H3 4521   0.365   2.884   1.878
 1189ETH     H4 4522   0.444   2.843   2.031
 1189ETH     H5 4523   0.503   3.064   2.048
 1190ETH      C 4524   4.208   1.426   2.787
 1190ETH     C1 4525   4.183   1.387   2.932
 1190ETH      O 4526   4.044   1.374   2.955
 1190ETH      H 4527   4.166   1.350   2.720
 1190ETH     H1 4528   4.315   1.435   2.768
 1190ETH     H2 4529   4.159   1.520   2.764
 1190ETH     H3 4530   4.230   1.291   2.954
 1190ETH     H4 4531   4.223   1.463   2.999
 1190ETH     H5 4532   4.003   1.462   2.936
 1191ETH      C 4533   1.705   4.519   3.938
 1191ETH     C1 4534   1.815   4.463   3.849
 1191ETH      O 4535   1.934   4.536   3.867
 1191ETH      H 4536   1.736   4.515   4.043
 1191ETH     H1 4537   1.612   4.462   3.926
 1191ETH     H2 4538   1.686   4.624   3.914
 1191ETH     H3 4539   1.834   4.359   3.875
 1191ETH     H4 4540   1.786   4.467   3.744
 1191ETH     H5 4541   1.916   4.629   3.842
 1192ETH      C 4542   3.053   4.939   3.276
 1192ETH     C1 4543   2.983   5.040   3.187
 1192ETH      O 4544   3.018   5.172   3.226
 1192ETH      H 4545   3.161   4.952   3.271
 1192ETH     H1 4546   3.027   4.837   3.246
 1192ETH     H2 4547   3.024   4.954   3.381
 1192ETH     H3 4548   3.014   5.026   3.083
 1192ETH     H4 4549   2.875   5.028   3.192
 1192ETH     H5 4550   2.988   5.183   3.319
 1193ETH      C 4551   4.420   5.474   2.619
 1193ETH     C1 4552   4.466   5.360   2.708
 1193ETH      O 4553   4.582   5.299   2.653
 1193ETH      H 4554   4.500   5.549   2.609
 1193ETH     H1 4555   4.332   5.522   2.661
 1193ETH     H2 4556   4.397   5.438   2.519
 1193ETH     H3 4557   4.491   5.397   2.807
 1193ETH     H4 4558   4.388   5.285   2.718
 1193ETH     H5 4559   4.558   5.265   2.564
 1194ETH      C 4560   4.174   2.131   2.330
 1194ETH     C1 4561   4.123   2.010   2.252
 1194ETH      O 4562   4.160   2.021   2.116
 1194ETH      H 4563   4.283   2.138   2.321
 1194ETH     H1 4564   4.147   2.123   2.436
 1194ETH     H2 4565   4.133   2.223   2.289
 1194ETH     H3 4566   4.166   1.919   2.292
 1194ETH     H4 4567   4.014   2.003   2.259
 1194ETH     H5 4568   4.119   2.103   2.081
 1195ETH      C 4569   3.790   4.278   3.464
 1195ETH     C1 4570   3.800   4.239   3.317
 1195ETH      O 4571   3.867   4.115   3.304
 1195ETH      H 4572   3.735   4.201   3.519
 1195ETH     H1 4573   3.737   4.373   3.474
 1195ETH     H2 4574   3.889   4.286   3.508
 1195ETH     H3 4575   3.701   4.229   3.273
 1195ETH     H4 4576   3.855   4.315   3.261
 1195ETH     H5 4577   3.956   4.125   3.343
 1196ETH      C 4578   2.609   4.676   2.970
 1196ETH     C1 4579   2.670   4.644   2.834
 1196ETH      O 4580   2.590   4.699   2.731
 1196ETH      H 4581   2.602   4.784   2.983
 1196ETH     H1 4582   2.671   4.634   3.050
 1196ETH     H2 4583   2.509   4.635   2.978
 1196ETH     H3 4584   2.769   4.686   2.826
 1196ETH     H4 4585   2.677   4.536   2.820
 1196ETH     H5 4586   2.500   4.659   2.739
 1197ETH      C 4587   2.688   3.015   2.912
 1197ETH     C1 4588   2.564   3.103   2.904
 1197ETH      O 4589   2.531   3.128   2.769
 1197ETH      H 4590   2.670   2.920   2.860
 1197ETH     H1 4591   2.714   2.995   3.016
 1197ETH     H2 4592   2.773   3.064   2.863
 1197ETH     H3 4593   2.480   3.053   2.952
 1197ETH     H4 4594   2.581   3.198   2.955
 1197ETH     H5 4595   2.607   3.174   2.728
 1198ETH      C 4596   0.853   2.141   0.564
 1198ETH     C1 4597   0.950   2.249   0.610
 1198ETH      O 4598   1.062   2.255   0.524
 1198ETH      H 4599   0.820   2.161   0.461
 1198ETH     H1 4600   0.766   2.136   0.629
 1198ETH     H2 4601   0.903   2.043   0.564
 1198ETH     H3 4602   0.900   2.346   0.608
 1198ETH     H4 4603   0.984   2.229   0.712
 1198ETH     H5 4604   1.105   2.167   0.528
 1199ETH      C 4605   2.648   4.169   4.206
 1199ETH     C1 4606   2.583   4.048   4.141
 1199ETH      O 4607   2.573   4.069   4.001
 1199ETH      H 4608   2.748   4.185   4.164
 1199ETH     H1 4609   2.658   4.153   4.314
 1199ETH     H2 4610   2.590   4.259   4.188
 1199ETH     H3 4611   2.643   3.959   4.158
 1199ETH     H4 4612   2.483   4.031   4.182
 1199ETH     H5 4613   2.517   4.148   3.987
 1200ETH      C 4614   1.416   0.378   2.390
 1200ETH     C1 4615   1.468   0.325   2.523
 1200ETH      O 4616   1.562   0.221   2.500
 1200ETH      H 4617   1.500   0.416   2.329
 1200ETH     H1 4618   1.344   0.459   2.406
 1200ETH     H2 4619   1.369   0.298   2.333
 1200ETH     H3 4620   1.517   0.404   2.579
 1200ETH     H4 4621   1.386   0.286   2.583
 1200ETH     H5 4622   1.516   0.150   2.452
 1201ETH      C 4623   3.849   5.111   1.651
 1201ETH     C1 4624   3.942   5.226   1.685
 1201ETH      O 4625   3.891   5.348   1.633
 1201ETH      H 4626   3.749   5.130   1.693
 1201ETH     H1 4627   3.887   5.017   1.692
 1201ETH     H2 4628   3.838   5.102   1.543
 1201ETH     H3 4629   3.952   5.237   1.793
 1201ETH     H4 4630   4.042   5.209   1.643
 1201ETH     H5 4631   3.885   5.337   1.536
 1202ETH      C 4632   0.560   4.089   2.957
 1202ETH     C1 4633   0.626   4.223   2.987
 1202ETH      O 4634   0.731   4.247   2.896
 1202ETH      H 4635   0.522   4.088   2.855
 1202ETH     H1 4636   0.478   4.070   3.027
 1202ETH     H2 4637   0.633   4.008   2.966
 1202ETH     H3 4638   0.553   4.303   2.977
 1202ETH     H4 4639   0.665   4.225   3.089
 1202ETH     H5 4640   0.796   4.175   2.907
 1203ETH      C 4641   5.453   1.897   4.513
 1203ETH     C1 4642   5.600   1.917   4.547
 1203ETH      O 4643   5.612   1.984   4.670
 1203ETH      H 4644   5.403   1.839   4.592
 1203ETH     H1 4645   5.442   1.843   4.418
 1203ETH     H2 4646   5.402   1.993   4.505
 1203ETH     H3 4647   5.650   1.820   4.556
 1203ETH     H4 4648   5.650   1.974   4.469
 1203ETH     H5 4649   5.568   2.071   4.660
 1204ETH      C 4650   3.771   0.271   3.942
 1204ETH     C1 4651   3.672   0.271   4.057
 1204ETH      O 4652   3.539   0.269   4.008
 1204ETH      H 4653   3.756   0.182   3.880
 1204ETH     H1 4654   3.874   0.271   3.980
 1204ETH     H2 4655   3.756   0.358   3.878
 1204ETH     H3 4656   3.686   0.182   4.120
 1204ETH     H4 4657   3.685   0.359   4.120
 1204ETH     H5 4658   3.527   0.350   3.953
 1205ETH      C 4659   3.880   1.117   5.501
 1205ETH     C1 4660   3.962   0.999   5.548
 1205ETH      O 4661   3.942   0.888   5.463
 1205ETH      H 4662   3.908   1.144   5.398
 1205ETH     H1 4663   3.896   1.204   5.566
 1205ETH     H2 4664   3.774   1.092   5.500
 1205ETH     H3 4665   4.069   1.024   5.547
 1205ETH     H4 4666   3.935   0.971   5.650
 1205ETH     H5 4667   3.847   0.866   5.466
 1206ETH      C 4668   2.452   3.192   1.735
 1206ETH     C1 4669   2.591   3.213   1.680
 1206ETH      O 4670   2.662   3.091   1.676
 1206ETH      H 4671   2.397   3.119   1.673
 1206ETH     H1 4672   2.396   3.286   1.737
 1206ETH     H2 4673   2.456   3.151   1.836
 1206ETH     H3 4674   2.586   3.252   1.578
 1206ETH     H4 4675   2.647   3.285   1.741
 1206ETH     H5 4676   2.667   3.057   1.768
 1207ETH      C 4677   2.762   5.333   1.467
 1207ETH     C1 4678   2.698   5.296   1.334
 1207ETH      O 4679   2.579   5.370   1.315
 1207ETH      H 4680   2.785   5.441   1.469
 1207ETH     H1 4681   2.855   5.277   1.482
 1207ETH     H2 4682   2.694   5.313   1.549
 1207ETH     H3 4683   2.766   5.318   1.252
 1207ETH     H4 4684   2.675   5.189   1.332
 1207ETH     H5 4685   2.519   5.348   1.389
 1208ETH      C 4686   0.887   1.649   1.984
 1208ETH     C1 4687   0.969   1.730   2.083
 1208ETH      O 4688   0.885   1.785   2.183
 1208ETH      H 4689   0.833   1.569   2.036
 1208ETH     H1 4690   0.951   1.605   1.907
 1208ETH     H2 4691   0.812   1.712   1.936
 1208ETH     H3 4692   1.042   1.665   2.132
 1208ETH     H4 4693   1.022   1.810   2.033
 1208ETH     H5 4694   0.821   1.843   2.137
 1209ETH      C 4695   4.982   2.310   5.139
 1209ETH     C1 4696   4.832   2.315   5.163
 1209ETH      O 4697   4.772   2.407   5.074
 1209ETH      H 4698   5.003   2.281   5.036
 1209ETH     H1 4699   5.030   2.238   5.207
 1209ETH     H2 4700   5.027   2.409   5.155
 1209ETH     H3 4701   4.788   2.217   5.145
 1209ETH     H4 4702   4.810   2.345   5.265
 1209ETH     H5 4703   4.812   2.495   5.092
 1210ETH      C 4704   3.902   2.387   1.845
 1210ETH     C1 4705   3.769   2.323   1.880
 1210ETH      O 4706   3.671   2.359   1.784
 1210ETH      H 4707   3.935   2.356   1.745
 1210ETH     H1 4708   3.979   2.359   1.918
 1210ETH     H2 4709   3.893   2.496   1.844
 1210ETH     H3 4710   3.778   2.214   1.880
 1210ETH     H4 4711   3.735   2.354   1.979
 1210ETH     H5 4712   3.663   2.456   1.786
 1211ETH      C 4713   0.674   5.053   3.734
 1211ETH     C1 4714   0.532   5.067   3.787
 1211ETH      O 4715   0.492   4.948   3.851
 1211ETH      H 4716   0.743   5.030   3.816
 1211ETH     H1 4717   0.707   5.146   3.685
 1211ETH     H2 4718   0.680   4.971   3.663
 1211ETH     H3 4719   0.527   5.149   3.859
 1211ETH     H4 4720   0.463   5.089   3.706
 1211ETH     H5 4721   0.496   4.876   3.784
 1212ETH      C 4722   0.806   3.945   3.248
 1212ETH     C1 4723   0.863   4.014   3.371
 1212ETH      O 4724   0.912   4.142   3.337
 1212ETH      H 4725   0.725   4.005   3.206
 1212ETH     H1 4726   0.767   3.846   3.274
 1212ETH     H2 4727   0.882   3.934   3.171
 1212ETH     H3 4728   0.786   4.026   3.447
 1212ETH     H4 4729   0.945   3.955   3.414
 1212ETH     H5 4730   0.982   4.129   3.269
 1213ETH      C 4731   0.359   4.583   4.644
 1213ETH     C1 4732   0.370   4.465   4.549
 1213ETH      O 4733   0.300   4.354   4.602
 1213ETH      H 4734   0.254   4.610   4.660
 1213ETH     H1 4735   0.412   4.670   4.603
 1213ETH     H2 4736   0.401   4.558   4.741
 1213ETH     H3 4737   0.326   4.490   4.453
 1213ETH     H4 4738   0.474   4.437   4.534
 1213ETH     H5 4739   0.341   4.332   4.688
 1214ETH      C 4740   3.852   3.362   4.076
 1214ETH     C1 4741   3.775   3.470   4.001
 1214ETH      O 4742   3.798   3.458   3.862
 1214ETH      H 4743   3.821   3.263   4.042
 1214ETH     H1 4744   3.834   3.370   4.184
 1214ETH     H2 4745   3.959   3.371   4.057
 1214ETH     H3 4746   3.668   3.459   4.019
 1214ETH     H4 4747   3.806   3.569   4.034
 1214ETH     H5 4748   3.894   3.469   3.847
 1215ETH      C 4749   4.612   1.223   5.175
 1215ETH     C1 4750   4.573   1.256   5.032
 1215ETH      O 4751   4.674   1.213   4.943
 1215ETH      H 4752   4.627   1.114   5.185
 1215ETH     H1 4753   4.533   1.254   5.245
 1215ETH     H2 4754   4.705   1.271   5.202
 1215ETH     H3 4755   4.480   1.206   5.005
 1215ETH     H4 4756   4.559   1.364   5.020
 1215ETH     H5 4757   4.757   1.260   4.967
 1216ETH      C 4758   2.161   2.152   4.205
 1216ETH     C1 4759   2.010   2.153   4.189
 1216ETH      O 4760   1.975   2.145   4.053
 1216ETH      H 4761   2.203   2.060   4.162
 1216ETH     H1 4762   2.189   2.157   4.311
 1216ETH     H2 4763   2.206   2.236   4.152
 1216ETH     H3 4764   1.966   2.067   4.241
 1216ETH     H4 4765   1.968   2.244   4.232
 1216ETH     H5 4766   2.014   2.223   4.008
 1217ETH      C 4767   1.855   3.254   4.353
 1217ETH     C1 4768   1.712   3.220   4.393
 1217ETH      O 4769   1.621   3.293   4.313
 1217ETH      H 4770   1.871   3.230   4.247
 1217ETH     H1 4771   1.927   3.197   4.414
 1217ETH     H2 4772   1.874   3.360   4.365
 1217ETH     H3 4773   1.693   3.114   4.379
 1217ETH     H4 4774   1.695   3.245   4.498
 1217ETH     H5 4775   1.639   3.388   4.328
 1218ETH      C 4776   2.374   0.690   2.426
 1218ETH     C1 4777   2.468   0.810   2.424
 1218ETH      O 4778   2.416   0.913   2.506
 1218ETH      H 4779   2.362   0.653   2.528
 1218ETH     H1 4780   2.414   0.609   2.363
 1218ETH     H2 4781   2.276   0.718   2.389
 1218ETH     H3 4782   2.566   0.782   2.462
 1218ETH     H4 4783   2.480   0.848   2.322
 1218ETH     H5 4784   2.328   0.938   2.470
 1219ETH      C 4785   5.124   1.383   4.441
 1219ETH     C1 4786   5.017   1.378   4.549
 1219ETH      O 4787   4.894   1.337   4.493
 1219ETH      H 4788   5.136   1.284   4.395
 1219ETH     H1 4789   5.220   1.414   4.484
 1219ETH     H2 4790   5.096   1.453   4.362
 1219ETH     H3 4791   5.045   1.307   4.626
 1219ETH     H4 4792   5.004   1.476   4.595
 1219ETH     H5 4793   4.869   1.402   4.424
 1220ETH      C 4794   5.078   5.402   0.658
 1220ETH     C1 4795   5.217   5.432   0.604
 1220ETH      O 4796   5.293   5.500   0.702
 1220ETH      H 4797   5.085   5.342   0.749
 1220ETH     H1 4798   5.019   5.348   0.583
 1220ETH     H2 4799   5.027   5.495   0.684
 1220ETH     H3 4800   5.269   5.339   0.580
 1220ETH     H4 4801   5.212   5.493   0.514
 1220ETH     H5 4802   5.247   5.584   0.721
 1221ETH      C 4803   5.270   1.812   2.063
 1221ETH     C1 4804   5.151   1.877   1.994
 1221ETH      O 4805   5.150   1.842   1.857
 1221ETH      H 4806   5.265   1.703   2.052
 1221ETH     H1 4807   5.272   1.837   2.169
 1221ETH     H2 4808   5.364   1.845   2.017
 1221ETH     H3 4809   5.058   1.842   2.039
 1221ETH     H4 4810   5.156   1.985   2.003
 1221ETH     H5 4811   5.234   1.874   1.817
 1222ETH      C 4812   5.425   2.690   0.952
 1222ETH     C1 4813   5.280   2.700   0.998
 1222ETH      O 4814   5.211   2.796   0.920
 1222ETH      H 4815   5.429   2.662   0.846
 1222ETH     H1 4816   5.479   2.616   1.010
 1222ETH     H2 4817   5.475   2.787   0.961
 1222ETH     H3 4818   5.231   2.604   0.986
 1222ETH     H4 4819   5.276   2.729   1.103
 1222ETH     H5 4820   5.256   2.882   0.932
 1223ETH      C 4821   4.496   1.034   2.958
 1223ETH     C1 4822   4.640   1.065   2.921
 1223ETH      O 4823   4.688   1.173   2.999
 1223ETH      H 4824   4.489   1.008   3.064
 1223ETH     H1 4825   4.458   0.950   2.899
 1223ETH     H2 4826   4.432   1.121   2.942
 1223ETH     H3 4827   4.703   0.979   2.939
 1223ETH     H4 4828   4.647   1.092   2.815
 1223ETH     H5 4829   4.630   1.250   2.980
 1224ETH      C 4830   4.058   4.900   2.620
 1224ETH     C1 4831   4.108   4.992   2.731
 1224ETH      O 4832   4.104   5.127   2.688
 1224ETH      H 4833   3.955   4.927   2.592
 1224ETH     H1 4834   4.060   4.796   2.653
 1224ETH     H2 4835   4.120   4.911   2.531
 1224ETH     H3 4836   4.045   4.983   2.819
 1224ETH     H4 4837   4.210   4.967   2.758
 1224ETH     H5 4838   4.162   5.134   2.609
 1225ETH      C 4839   2.711   0.370   3.986
 1225ETH     C1 4840   2.708   0.499   3.906
 1225ETH      O 4841   2.688   0.609   3.992
 1225ETH      H 4842   2.791   0.373   4.061
 1225ETH     H1 4843   2.727   0.284   3.920
 1225ETH     H2 4844   2.617   0.356   4.040
 1225ETH     H3 4845   2.803   0.513   3.854
 1225ETH     H4 4846   2.628   0.497   3.832
 1225ETH     H5 4847   2.602   0.596   4.037
 1226ETH      C 4848   3.454   2.854   2.005
 1226ETH     C1 4849   3.364   2.964   2.060
 1226ETH      O 4850   3.374   2.968   2.201
 1226ETH      H 4851   3.558   2.873   2.034
 1226ETH     H1 4852   3.448   2.851   1.895
 1226ETH     H2 4853   3.426   2.757   2.045
 1226ETH     H3 4854   3.394   3.061   2.021
 1226ETH     H4 4855   3.260   2.946   2.032
 1226ETH     H5 4856   3.346   2.881   2.235
 1227ETH      C 4857   0.235   4.800   0.838
 1227ETH     C1 4858   0.282   4.738   0.968
 1227ETH      O 4859   0.177   4.737   1.062
 1227ETH      H 4860   0.150   4.744   0.797
 1227ETH     H1 4861   0.316   4.800   0.764
 1227ETH     H2 4862   0.201   4.902   0.854
 1227ETH     H3 4863   0.314   4.635   0.952
 1227ETH     H4 4864   0.366   4.794   1.009
 1227ETH     H5 4865   0.150   4.830   1.078
 1228ETH      C 4866   4.625   3.128   0.710
 1228ETH     C1 4867   4.530   3.010   0.709
 1228ETH      O 4868   4.584   2.905   0.632
 1228ETH      H 4869   4.722   3.098   0.752
 1228ETH     H1 4870   4.585   3.210   0.770
 1228ETH     H2 4871   4.644   3.164   0.609
 1228ETH     H3 4872   4.513   2.974   0.810
 1228ETH     H4 4873   4.433   3.039   0.666
 1228ETH     H5 4874   4.597   2.938   0.541
 1229ETH      C 4875   3.900   0.703   3.645
 1229ETH     C1 4876   3.773   0.779   3.677
 1229ETH      O 4877   3.692   0.789   3.561
 1229ETH      H 4878   3.876   0.602   3.608
 1229ETH     H1 4879   3.963   0.694   3.734
 1229ETH     H2 4880   3.957   0.753   3.567
 1229ETH     H3 4881   3.716   0.727   3.754
 1229ETH     H4 4882   3.796   0.879   3.713
 1229ETH     H5 4883   3.744   0.837   3.494
 1230ETH      C 4884   2.302   1.864   1.392
 1230ETH     C1 4885   2.232   1.842   1.525
 1230ETH      O 4886   2.301   1.745   1.601
 1230ETH      H 4887   2.406   1.896   1.409
 1230ETH     H1 4888   2.251   1.940   1.333
 1230ETH     H2 4889   2.306   1.771   1.335
 1230ETH     H3 4890   2.231   1.935   1.582
 1230ETH     H4 4891   2.129   1.810   1.509
 1230ETH     H5 4892   2.300   1.661   1.549
 1231ETH      C 4893   2.384   2.630   4.515
 1231ETH     C1 4894   2.309   2.731   4.430
 1231ETH      O 4895   2.277   2.845   4.507
 1231ETH      H 4896   2.476   2.674   4.555
 1231ETH     H1 4897   2.410   2.541   4.456
 1231ETH     H2 4898   2.323   2.599   4.600
 1231ETH     H3 4899   2.371   2.763   4.346
 1231ETH     H4 4900   2.217   2.688   4.390
 1231ETH     H5 4901   2.221   2.816   4.581
 1232ETH      C 4902   1.285   1.534   0.231
 1232ETH     C1 4903   1.361   1.587   0.351
 1232ETH      O 4904   1.272   1.652   0.440
 1232ETH      H 4905   1.207   1.463   0.263
 1232ETH     H1 4906   1.353   1.482   0.162
 1232ETH     H2 4907   1.235   1.615   0.178
 1232ETH     H3 4908   1.409   1.505   0.405
 1232ETH     H4 4909   1.438   1.657   0.320
 1232ETH     H5 4910   1.231   1.726   0.391
 1233ETH      C 4911   4.619   1.263   0.472
 1233ETH     C1 4912   4.554   1.130   0.507
 1233ETH      O 4913   4.550   1.046   0.392
 1233ETH      H 4914   4.721   1.246   0.435
 1233ETH     H1 4915   4.623   1.328   0.561
 1233ETH     H2 4916   4.564   1.313   0.394
 1233ETH     H3 4917   4.611   1.079   0.584
 1233ETH     H4 4918   4.452   1.145   0.543
 1233ETH     H5 4919   4.498   1.093   0.324
 1234ETH      C 4920   3.714   1.793   2.102
 1234ETH     C1 4921   3.562   1.791   2.097
 1234ETH      O 4922   3.514   1.900   2.020
 1234ETH      H 4923   3.755   1.787   2.000
 1234ETH     H1 4924   3.752   1.709   2.160
 1234ETH     H2 4925   3.750   1.886   2.146
 1234ETH     H3 4926   3.526   1.699   2.051
 1234ETH     H4 4927   3.520   1.798   2.198
 1234ETH     H5 4928   3.545   1.982   2.064
 1235ETH      C 4929   4.264   1.464   3.850
 1235ETH     C1 4930   4.377   1.554   3.896
 1235ETH      O 4931   4.486   1.545   3.806
 1235ETH      H 4932   4.231   1.493   3.749
 1235ETH     H1 4933   4.178   1.471   3.918
 1235ETH     H2 4934   4.297   1.360   3.844
 1235ETH     H3 4935   4.344   1.658   3.900
 1235ETH     H4 4936   4.411   1.525   3.996
 1235ETH     H5 4937   4.516   1.452   3.805
 1236ETH      C 4938   5.098   0.770   3.491
 1236ETH     C1 4939   5.240   0.823   3.507
 1236ETH      O 4940   5.330   0.749   3.427
 1236ETH      H 4941   5.068   0.776   3.385
 1236ETH     H1 4942   5.028   0.829   3.551
 1236ETH     H2 4943   5.093   0.666   3.521
 1236ETH     H3 4944   5.245   0.928   3.475
 1236ETH     H4 4945   5.272   0.818   3.611
 1236ETH     H5 4946   5.325   0.655   3.458
 1237ETH      C 4947   4.358   3.593   0.551
 1237ETH     C1 4948   4.359   3.531   0.690
 1237ETH      O 4949   4.362   3.632   0.788
 1237ETH      H 4950   4.271   3.659   0.539
 1237ETH     H1 4951   4.355   3.515   0.474
 1237ETH     H2 4952   4.447   3.654   0.536
 1237ETH     H3 4953   4.269   3.471   0.705
 1237ETH     H4 4954   4.446   3.466   0.702
 1237ETH     H5 4955   4.444   3.684   0.774
 1238ETH      C 4956   5.141   1.842   0.541
 1238ETH     C1 4957   5.255   1.936   0.576
 1238ETH      O 4958   5.365   1.915   0.489
 1238ETH      H 4959   5.109   1.859   0.437
 1238ETH     H1 4960   5.056   1.859   0.608
 1238ETH     H2 4961   5.173   1.738   0.549
 1238ETH     H3 4962   5.223   2.040   0.566
 1238ETH     H4 4963   5.288   1.920   0.679
 1238ETH     H5 4964   5.393   1.822   0.500
 1239ETH      C 4965   4.074   1.116   2.288
 1239ETH     C1 4966   4.019   1.162   2.422
 1239ETH      O 4967   3.908   1.248   2.403
 1239ETH      H 4968   3.995   1.064   2.231
 1239ETH     H1 4969   4.158   1.049   2.302
 1239ETH     H2 4970   4.105   1.202   2.228
 1239ETH     H3 4971   3.985   1.077   2.480
 1239ETH     H4 4972   4.095   1.215   2.479
 1239ETH     H5 4973   3.940   1.326   2.351
 1240ETH      C 4974   2.525   2.010   2.837
 1240ETH     C1 4975   2.520   1.869   2.894
 1240ETH      O 4976   2.436   1.788   2.814
 1240ETH      H 4977   2.562   2.008   2.734
 1240ETH     H1 4978   2.590   2.074   2.898
 1240ETH     H2 4979   2.425   2.054   2.835
 1240ETH     H3 4980   2.620   1.825   2.894
 1240ETH     H4 4981   2.482   1.870   2.996
 1240ETH     H5 4982   2.347   1.827   2.816
 1241ETH      C 4983   3.950   1.093   4.328
 1241ETH     C1 4984   3.922   0.945   4.347
 1241ETH      O 4985   3.782   0.922   4.347
 1241ETH      H 4986   3.907   1.128   4.234
 1241ETH     H1 4987   4.058   1.112   4.327
 1241ETH     H2 4988   3.905   1.151   4.409
 1241ETH     H3 4989   3.966   0.887   4.266
 1241ETH     H4 4990   3.964   0.909   4.441
 1241ETH     H5 4991   3.744   0.973   4.422
 1242ETH      C 4992   0.911   1.699   0.497
 1242ETH     C1 4993   0.799   1.605   0.537
 1242ETH      O 4994   0.832   1.472   0.502
 1242ETH      H 4995   1.005   1.669   0.548
 1242ETH     H1 4996   0.887   1.802   0.525
 1242ETH     H2 4997   0.930   1.693   0.390
 1242ETH     H3 4998   0.782   1.609   0.645
 1242ETH     H4 4999   0.706   1.633   0.487
 1242ETH     H5 5000   0.845   1.469   0.405
 1243ETH      C 5001   0.518   0.917   0.699
 1243ETH     C1 5002   0.615   0.817   0.638
 1243ETH      O 5003   0.575   0.685   0.669
 1243ETH      H 5004   0.416   0.899   0.661
 1243ETH     H1 5005   0.547   1.019   0.675
 1243ETH     H2 5006   0.514   0.905   0.808
 1243ETH     H3 5007   0.617   0.828   0.530
 1243ETH     H4 5008   0.716   0.834   0.676
 1243ETH     H5 5009   0.575   0.676   0.766
 1244ETH      C 5010   0.623   4.221   1.571
 1244ETH     C1 5011   0.581   4.335   1.664
 1244ETH      O 5012   0.687   4.427   1.679
 1244ETH      H 5013   0.652   4.261   1.473
 1244ETH     H1 5014   0.540   4.150   1.558
 1244ETH     H2 5015   0.709   4.169   1.612
 1244ETH     H3 5016   0.496   4.388   1.622
 1244ETH     H4 5017   0.553   4.296   1.762
 1244ETH     H5 5018   0.763   4.378   1.718
 1245ETH      C 5019   0.545   0.459   5.427
 1245ETH     C1 5020   0.417   0.541   5.433
 1245ETH      O 5021   0.317   0.481   5.354
 1245ETH      H 5022   0.526   0.358   5.463
 1245ETH     H1 5023   0.623   0.505   5.489
 1245ETH     H2 5024   0.581   0.452   5.324
 1245ETH     H3 5025   0.381   0.547   5.536
 1245ETH     H4 5026   0.435   0.643   5.397
 1245ETH     H5 5027   0.350   0.477   5.262
 1246ETH      C 5028   5.582   2.768   1.792
 1246ETH     C1 5029   5.557   2.913   1.757
 1246ETH      O 5030   5.468   2.922   1.647
 1246ETH      H 5031   5.488   2.718   1.817
 1246ETH     H1 5032   5.650   2.760   1.878
 1246ETH     H2 5033   5.626   2.715   1.708
 1246ETH     H3 5034   5.511   2.966   1.841
 1246ETH     H4 5035   5.650   2.964   1.731
 1246ETH     H5 5036   5.510   2.876   1.571
 1247ETH      C 5037   5.076   0.380   4.133
 1247ETH     C1 5038   5.074   0.529   4.162
 1247ETH      O 5039   4.958   0.564   4.233
 1247ETH      H 5040   5.072   0.324   4.227
 1247ETH     H1 5041   5.167   0.352   4.078
 1247ETH     H2 5042   4.989   0.352   4.074
 1247ETH     H3 5043   5.161   0.557   4.222
 1247ETH     H4 5044   5.077   0.587   4.069
 1247ETH     H5 5045   4.881   0.540   4.178
 1248ETH      C 5046   3.425   5.269   1.248
 1248ETH     C1 5047   3.549   5.184   1.270
 1248ETH      O 5048   3.588   5.121   1.150
 1248ETH      H 5049   3.445   5.344   1.170
 1248ETH     H1 5050   3.395   5.319   1.340
 1248ETH     H2 5051   3.343   5.207   1.212
 1248ETH     H3 5052   3.632   5.247   1.304
 1248ETH     H4 5053   3.530   5.108   1.346
 1248ETH     H5 5054   3.513   5.064   1.122
 1249ETH      C 5055   3.209   0.244   1.052
 1249ETH     C1 5056   3.066   0.217   1.097
 1249ETH      O 5057   2.995   0.150   0.995
 1249ETH      H 5058   3.259   0.150   1.027
 1249ETH     H1 5059   3.265   0.295   1.131
 1249ETH     H2 5060   3.209   0.306   0.963
 1249ETH     H3 5061   3.066   0.153   1.186
 1249ETH     H4 5062   3.015   0.310   1.121
 1249ETH     H5 5063   2.994   0.209   0.916
 1250ETH      C 5064   1.291   4.595   3.381
 1250ETH     C1 5065   1.294   4.660   3.244
 1250ETH      O 5066   1.165   4.708   3.210
 1250ETH      H 5067   1.258   4.668   3.456
 1250ETH     H1 5068   1.390   4.559   3.409
 1250ETH     H2 5069   1.221   4.512   3.383
 1250ETH     H3 5070   1.363   4.744   3.243
 1250ETH     H4 5071   1.326   4.588   3.168
 1250ETH     H5 5072   1.104   4.631   3.210
 1251ETH      C 5073   2.645   5.563   1.077
 1251ETH     C1 5074   2.500   5.560   1.123
 1251ETH      O 5075   2.434   5.446   1.071
 1251ETH      H 5076   2.697   5.472   1.110
 1251ETH     H1 5077   2.697   5.650   1.118
 1251ETH     H2 5078   2.650   5.566   0.968
 1251ETH     H3 5079   2.495   5.556   1.232
 1251ETH     H4 5080   2.448   5.650   1.090
 1251ETH     H5 5081   2.438   5.452   0.973
 1252ETH      C 5082   2.679   2.397   4.704
 1252ETH     C1 5083   2.715   2.252   4.731
 1252ETH      O 5084   2.677   2.171   4.621
 1252ETH      H 5085   2.730   2.432   4.613
 1252ETH     H1 5086   2.709   2.461   4.787
 1252ETH     H2 5087   2.572   2.408   4.687
 1252ETH     H3 5088   2.822   2.242   4.745
 1252ETH     H4 5089   2.664   2.216   4.821
 1252ETH     H5 5090   2.580   2.180   4.610
 1253ETH      C 5091   5.192   4.803   0.872
 1253ETH     C1 5092   5.271   4.716   0.969
 1253ETH      O 5093   5.255   4.580   0.936
 1253ETH      H 5094   5.226   4.785   0.769
 1253ETH     H1 5095   5.205   4.909   0.895
 1253ETH     H2 5096   5.086   4.778   0.876
 1253ETH     H3 5097   5.377   4.740   0.963
 1253ETH     H4 5098   5.238   4.733   1.071
 1253ETH     H5 5099   5.159   4.559   0.943
 1254ETH      C 5100   4.927   2.603   2.321
 1254ETH     C1 5101   4.833   2.491   2.362
 1254ETH      O 5102   4.718   2.490   2.280
 1254ETH      H 5103   4.956   2.591   2.215
 1254ETH     H1 5104   5.017   2.604   2.383
 1254ETH     H2 5105   4.877   2.700   2.329
 1254ETH     H3 5106   4.883   2.394   2.351
 1254ETH     H4 5107   4.803   2.503   2.466
 1254ETH     H5 5108   4.674   2.577   2.291
 1255ETH      C 5109   4.517   4.038   0.935
 1255ETH     C1 5110   4.645   4.075   1.007
 1255ETH      O 5111   4.714   4.176   0.936
 1255ETH      H 5112   4.453   4.126   0.924
 1255ETH     H1 5113   4.462   3.961   0.990
 1255ETH     H2 5114   4.539   4.001   0.835
 1255ETH     H3 5115   4.623   4.113   1.107
 1255ETH     H4 5116   4.710   3.988   1.018
 1255ETH     H5 5117   4.735   4.140   0.847
 1256ETH      C 5118   4.593   2.658   1.181
 1256ETH     C1 5119   4.663   2.779   1.241
 1256ETH      O 5120   4.743   2.843   1.144
 1256ETH      H 5121   4.530   2.689   1.097
 1256ETH     H1 5122   4.530   2.609   1.256
 1256ETH     H2 5123   4.666   2.587   1.143
 1256ETH     H3 5124   4.590   2.851   1.278
 1256ETH     H4 5125   4.727   2.749   1.325
 1256ETH     H5 5126   4.809   2.778   1.113
 1257ETH      C 5127   2.528   3.026   5.124
 1257ETH     C1 5128   2.674   3.009   5.163
 1257ETH      O 5129   2.738   2.920   5.074
 1257ETH      H 5130   2.520   3.065   5.022
 1257ETH     H1 5131   2.477   3.095   5.193
 1257ETH     H2 5132   2.476   2.930   5.126
 1257ETH     H3 5133   2.725   3.105   5.160
 1257ETH     H4 5134   2.682   2.969   5.265
 1257ETH     H5 5135   2.691   2.834   5.079
 1258ETH      C 5136   1.768   0.943   2.174
 1258ETH     C1 5137   1.885   0.904   2.086
 1258ETH      O 5138   1.997   0.870   2.166
 1258ETH      H 5139   1.741   0.860   2.241
 1258ETH     H1 5140   1.680   0.969   2.113
 1258ETH     H2 5141   1.793   1.028   2.237
 1258ETH     H3 5142   1.859   0.818   2.024
 1258ETH     H4 5143   1.912   0.987   2.020
 1258ETH     H5 5144   2.020   0.949   2.219
 1259ETH      C 5145   2.194   1.245   0.250
 1259ETH     C1 5146   2.072   1.336   0.248
 1259ETH      O 5147   1.980   1.295   0.346
 1259ETH      H 5148   2.241   1.247   0.349
 1259ETH     H1 5149   2.267   1.276   0.175
 1259ETH     H2 5150   2.165   1.141   0.231
 1259ETH     H3 5151   2.102   1.438   0.269
 1259ETH     H4 5152   2.024   1.333   0.150
 1259ETH     H5 5153   1.953   1.203   0.325
 1260ETH      C 5154   4.783   1.747   2.875
 1260ETH     C1 5155   4.837   1.731   3.017
 1260ETH      O 5156   4.976   1.708   3.014
 1260ETH      H 5157   4.834   1.831   2.825
 1260ETH     H1 5158   4.675   1.766   2.876
 1260ETH     H2 5159   4.803   1.658   2.816
 1260ETH     H3 5160   4.818   1.821   3.075
 1260ETH     H4 5161   4.787   1.647   3.067
 1260ETH     H5 5162   4.991   1.625   2.962
 1261ETH      C 5163   1.005   1.716   3.812
 1261ETH     C1 5164   0.916   1.594   3.827
 1261ETH      O 5165   0.971   1.506   3.923
 1261ETH      H 5166   1.016   1.768   3.909
 1261ETH     H1 5167   0.963   1.786   3.739
 1261ETH     H2 5168   1.105   1.687   3.780
 1261ETH     H3 5169   0.817   1.624   3.862
 1261ETH     H4 5170   0.906   1.542   3.732
 1261ETH     H5 5171   1.060   1.479   3.890
 1262ETH      C 5172   0.876   5.366   5.013
 1262ETH     C1 5173   0.982   5.296   5.096
 1262ETH      O 5174   0.952   5.306   5.234
 1262ETH      H 5175   0.777   5.322   5.034
 1262ETH     H1 5176   0.897   5.358   4.907
 1262ETH     H2 5177   0.870   5.472   5.041
 1262ETH     H3 5178   0.987   5.190   5.070
 1262ETH     H4 5179   1.080   5.340   5.077
 1262ETH     H5 5180   0.950   5.402   5.256
 1263ETH      C 5181   4.094   4.382   0.253
 1263ETH     C1 5182   4.056   4.274   0.353
 1263ETH      O 5183   3.927   4.224   0.324
 1263ETH      H 5184   4.092   4.341   0.151
 1263ETH     H1 5185   4.194   4.421   0.274
 1263ETH     H2 5186   4.023   4.465   0.257
 1263ETH     H3 5187   4.127   4.191   0.348
 1263ETH     H4 5188   4.057   4.314   0.455
 1263ETH     H5 5189   3.864   4.300   0.331
 1264ETH      C 5190   4.165   3.085   0.860
 1264ETH     C1 5191   4.041   3.116   0.941
 1264ETH      O 5192   3.932   3.145   0.855
 1264ETH      H 5193   4.146   2.999   0.794
 1264ETH     H1 5194   4.250   3.062   0.925
 1264ETH     H2 5195   4.191   3.169   0.796
 1264ETH     H3 5196   4.014   3.031   1.003
 1264ETH     H4 5197   4.058   3.202   1.006
 1264ETH     H5 5198   3.957   3.222   0.801
 1265ETH      C 5199   4.714   3.683   0.583
 1265ETH     C1 5200   4.821   3.657   0.688
 1265ETH      O 5201   4.872   3.780   0.737
 1265ETH      H 5202   4.633   3.744   0.626
 1265ETH     H1 5203   4.673   3.589   0.545
 1265ETH     H2 5204   4.756   3.740   0.499
 1265ETH     H3 5205   4.778   3.602   0.772
 1265ETH     H4 5206   4.902   3.598   0.646
 1265ETH     H5 5207   4.912   3.827   0.661
 1266ETH      C 5208   3.793   0.564   1.046
 1266ETH     C1 5209   3.919   0.639   1.088
 1266ETH      O 5210   4.023   0.613   0.996
 1266ETH      H 5211   3.762   0.595   0.946
 1266ETH     H1 5212   3.711   0.585   1.116
 1266ETH     H2 5213   3.811   0.457   1.044
 1266ETH     H3 5214   3.900   0.746   1.088
 1266ETH     H4 5215   3.950   0.609   1.188
 1266ETH     H5 5216   4.039   0.516   0.998
 1267ETH      C 5217   2.463   1.039   1.343
 1267ETH     C1 5218   2.412   0.906   1.397
 1267ETH      O 5219   2.275   0.891   1.368
 1267ETH      H 5220   2.447   1.044   1.235
 1267ETH     H1 5221   2.569   1.052   1.364
 1267ETH     H2 5222   2.407   1.122   1.388
 1267ETH     H3 5223   2.466   0.824   1.351
 1267ETH     H4 5224   2.427   0.901   1.505
 1267ETH     H5 5225   2.227   0.965   1.411
 1268ETH      C 5226   3.412   2.459   0.586
 1268ETH     C1 5227   3.545   2.393   0.554
 1268ETH      O 5228   3.616   2.472   0.460
 1268ETH      H 5229   3.428   2.559   0.627
 1268ETH     H1 5230   3.356   2.399   0.659
 1268ETH     H2 5231   3.351   2.470   0.496
 1268ETH     H3 5232   3.606   2.385   0.644
 1268ETH     H4 5233   3.530   2.294   0.512
 1268ETH     H5 5234   3.561   2.478   0.379
 1269ETH      C 5235   3.383   5.310   2.790
 1269ETH     C1 5236   3.489   5.274   2.687
 1269ETH      O 5237   3.568   5.388   2.657
 1269ETH      H 5238   3.430   5.347   2.881
 1269ETH     H1 5239   3.322   5.222   2.814
 1269ETH     H2 5240   3.318   5.389   2.752
 1269ETH     H3 5241   3.555   5.196   2.726
 1269ETH     H4 5242   3.443   5.238   2.595
 1269ETH     H5 5243   3.508   5.456   2.621
 1270ETH      C 5244   4.811   3.383   3.349
 1270ETH     C1 5245   4.717   3.480   3.419
 1270ETH      O 5246   4.692   3.592   3.335
 1270ETH      H 5247   4.767   3.349   3.254
 1270ETH     H1 5248   4.830   3.295   3.412
 1270ETH     H2 5249   4.906   3.432   3.326
 1270ETH     H3 5250   4.622   3.431   3.440
 1270ETH     H4 5251   4.760   3.514   3.513
 1270ETH     H5 5252   4.778   3.635   3.318
 1271ETH      C 5253   1.502   2.137   3.563
 1271ETH     C1 5254   1.420   2.175   3.441
 1271ETH      O 5255   1.337   2.067   3.403
 1271ETH      H 5256   1.436   2.109   3.646
 1271ETH     H1 5257   1.566   2.220   3.595
 1271ETH     H2 5258   1.565   2.050   3.542
 1271ETH     H3 5259   1.357   2.260   3.464
 1271ETH     H4 5260   1.486   2.201   3.358
 1271ETH     H5 5261   1.396   1.991   3.381
 1272ETH      C 5262   1.676   2.990   2.536
 1272ETH     C1 5263   1.608   2.894   2.440
 1272ETH      O 5264   1.658   2.913   2.309
 1272ETH      H 5265   1.784   2.975   2.535
 1272ETH     H1 5266   1.639   2.975   2.638
 1272ETH     H2 5267   1.657   3.093   2.506
 1272ETH     H3 5268   1.629   2.791   2.469
 1272ETH     H4 5269   1.500   2.909   2.440
 1272ETH     H5 5270   1.638   3.005   2.284
 1273ETH      C 5271   4.204   0.887   5.242
 1273ETH     C1 5272   4.290   1.007   5.281
 1273ETH      O 5273   4.415   0.963   5.330
 1273ETH      H 5274   4.255   0.828   5.166
 1273ETH     H1 5275   4.107   0.921   5.204
 1273ETH     H2 5276   4.188   0.823   5.329
 1273ETH     H3 5277   4.308   1.070   5.194
 1273ETH     H4 5278   4.241   1.067   5.358
 1273ETH     H5 5279   4.398   0.907   5.409
 1274ETH      C 5280   4.071   4.545   3.424
 1274ETH     C1 5281   4.139   4.667   3.363
 1274ETH      O 5282   4.181   4.637   3.231
 1274ETH      H 5283   3.984   4.516   3.363
 1274ETH     H1 5284   4.036   4.567   3.526
 1274ETH     H2 5285   4.139   4.460   3.427
 1274ETH     H3 5286   4.070   4.751   3.359
 1274ETH     H4 5287   4.226   4.696   3.423
 1274ETH     H5 5288   4.245   4.562   3.237
 1275ETH      C 5289   0.736   3.140   3.913
 1275ETH     C1 5290   0.791   3.084   3.783
 1275ETH      O 5291   0.851   2.958   3.805
 1275ETH      H 5292   0.662   3.070   3.955
 1275ETH     H1 5293   0.688   3.237   3.896
 1275ETH     H2 5294   0.815   3.151   3.987
 1275ETH     H3 5295   0.711   3.071   3.710
 1275ETH     H4 5296   0.866   3.152   3.740
 1275ETH     H5 5297   0.924   2.971   3.870
 1276ETH      C 5298   3.699   4.989   4.925
 1276ETH     C1 5299   3.696   5.109   5.019
 1276ETH      O 5300   3.771   5.215   4.964
 1276ETH      H 5301   3.657   5.017   4.827
 1276ETH     H1 5302   3.640   4.906   4.965
 1276ETH     H2 5303   3.801   4.956   4.908
 1276ETH     H3 5304   3.593   5.143   5.033
 1276ETH     H4 5305   3.737   5.082   5.116
 1276ETH     H5 5306   3.863   5.183   4.953
 1277ETH      C 5307   3.640   1.133   4.613
 1277ETH     C1 5308   3.557   1.248   4.668
 1277ETH      O 5309   3.636   1.326   4.756
 1277ETH      H 5310   3.728   1.172   4.560
 1277ETH     H1 5311   3.580   1.073   4.544
 1277ETH     H2 5312   3.676   1.070   4.694
 1277ETH     H3 5313   3.523   1.312   4.587
 1277ETH     H4 5314   3.470   1.211   4.722
 1277ETH     H5 5315   3.665   1.268   4.829
 1278ETH      C 5316   1.274   4.756   2.827
 1278ETH     C1 5317   1.377   4.867   2.811
 1278ETH      O 5318   1.373   4.954   2.922
 1278ETH      H 5319   1.294   4.700   2.919
 1278ETH     H1 5320   1.278   4.688   2.742
 1278ETH     H2 5321   1.174   4.798   2.836
 1278ETH     H3 5322   1.477   4.825   2.804
 1278ETH     H4 5323   1.357   4.924   2.720
 1278ETH     H5 5324   1.282   4.992   2.926
 1279ETH      C 5325   0.340   1.596   2.193
 1279ETH     C1 5326   0.410   1.718   2.136
 1279ETH      O 5327   0.321   1.828   2.134
 1279ETH      H 5328   0.304   1.617   2.294
 1279ETH     H1 5329   0.408   1.510   2.196
 1279ETH     H2 5330   0.253   1.570   2.132
 1279ETH     H3 5331   0.495   1.745   2.198
 1279ETH     H4 5332   0.445   1.698   2.035
 1279ETH     H5 5333   0.245   1.804   2.077
 1280ETH      C 5334   4.468   3.509   4.253
 1280ETH     C1 5335   4.467   3.532   4.102
 1280ETH      O 5336   4.576   3.614   4.065
 1280ETH      H 5337   4.562   3.462   4.284
 1280ETH     H1 5338   4.385   3.445   4.282
 1280ETH     H2 5339   4.460   3.604   4.306
 1280ETH     H3 5340   4.477   3.437   4.050
 1280ETH     H4 5341   4.374   3.579   4.071
 1280ETH     H5 5342   4.566   3.700   4.112
 1281ETH      C 5343   4.583   1.837   3.856
 1281ETH     C1 5344   4.671   1.772   3.962
 1281ETH      O 5345   4.653   1.837   4.086
 1281ETH      H 5346   4.478   1.832   3.885
 1281ETH     H1 5347   4.596   1.786   3.760
 1281ETH     H2 5348   4.609   1.942   3.844
 1281ETH     H3 5349   4.643   1.667   3.975
 1281ETH     H4 5350   4.776   1.777   3.934
 1281ETH     H5 5351   4.679   1.931   4.074
 1282ETH      C 5352   1.786   2.285   4.997
 1282ETH     C1 5353   1.883   2.354   4.903
 1282ETH      O 5354   1.927   2.476   4.960
 1282ETH      H 5355   1.833   2.266   5.094
 1282ETH     H1 5356   1.752   2.190   4.955
 1282ETH     H2 5357   1.699   2.349   5.016
 1282ETH     H3 5358   1.970   2.291   4.887
 1282ETH     H4 5359   1.836   2.374   4.807
 1282ETH     H5 5360   1.848   2.532   4.973
 1283ETH      C 5361   2.689   2.651   4.207
 1283ETH     C1 5362   2.638   2.538   4.117
 1283ETH      O 5363   2.498   2.522   4.133
 1283ETH      H 5364   2.637   2.744   4.182
 1283ETH     H1 5365   2.796   2.664   4.194
 1283ETH     H2 5366   2.667   2.628   4.311
 1283ETH     H3 5367   2.658   2.562   4.012
 1283ETH     H4 5368   2.688   2.445   4.141
 1283ETH     H5 5369   2.482   2.500   4.227
 1284ETH      C 5370   2.100   5.348   2.873
 1284ETH     C1 5371   1.978   5.357   2.964
 1284ETH      O 5372   1.918   5.485   2.952
 1284ETH      H 5373   2.071   5.366   2.769
 1284ETH     H1 5374   2.146   5.249   2.881
 1284ETH     H2 5375   2.173   5.423   2.900
 1284ETH     H3 5376   1.904   5.282   2.935
 1284ETH     H4 5377   2.006   5.340   3.068
 1284ETH     H5 5378   1.986   5.551   2.979
 1285ETH      C 5379   0.892   2.489   5.436
 1285ETH     C1 5380   0.878   2.525   5.289
 1285ETH      O 5381   1.004   2.560   5.235
 1285ETH      H 5382   0.961   2.405   5.447
 1285ETH     H1 5383   0.795   2.461   5.478
 1285ETH     H2 5384   0.932   2.572   5.492
 1285ETH     H3 5385   0.839   2.441   5.232
 1285ETH     H4 5386   0.810   2.609   5.277
 1285ETH     H5 5387   1.038   2.637   5.286
 1286ETH      C 5388   4.745   2.339   0.654
 1286ETH     C1 5389   4.882   2.333   0.720
 1286ETH      O 5390   4.940   2.205   0.699
 1286ETH      H 5391   4.754   2.319   0.546
 1286ETH     H1 5392   4.700   2.438   0.668
 1286ETH     H2 5393   4.679   2.264   0.696
 1286ETH     H3 5394   4.949   2.407   0.676
 1286ETH     H4 5395   4.874   2.352   0.827
 1286ETH     H5 5396   4.880   2.139   0.740
 1287ETH      C 5397   4.354   4.795   0.348
 1287ETH     C1 5398   4.347   4.679   0.447
 1287ETH      O 5399   4.417   4.568   0.396
 1287ETH      H 5400   4.458   4.822   0.329
 1287ETH     H1 5401   4.301   4.882   0.388
 1287ETH     H2 5402   4.310   4.766   0.253
 1287ETH     H3 5403   4.393   4.708   0.542
 1287ETH     H4 5404   4.244   4.651   0.466
 1287ETH     H5 5405   4.374   4.542   0.311
 1288ETH      C 5406   1.105   4.898   2.213
 1288ETH     C1 5407   1.028   5.025   2.180
 1288ETH      O 5408   1.091   5.095   2.075
 1288ETH      H 5409   1.111   4.833   2.124
 1288ETH     H1 5410   1.057   4.842   2.293
 1288ETH     H2 5411   1.208   4.921   2.242
 1288ETH     H3 5412   0.927   5.000   2.149
 1288ETH     H4 5413   1.022   5.089   2.268
 1288ETH     H5 5414   1.182   5.117   2.105
 1289ETH      C 5415   0.334   1.569   3.953
 1289ETH     C1 5416   0.220   1.538   4.049
 1289ETH      O 5417   0.150   1.657   4.080
 1289ETH      H 5418   0.295   1.614   3.861
 1289ETH     H1 5419   0.388   1.477   3.928
 1289ETH     H2 5420   0.404   1.640   3.998
 1289ETH     H3 5421   0.150   1.469   4.003
 1289ETH     H4 5422   0.258   1.494   4.141
 1289ETH     H5 5423   0.214   1.719   4.122
 1290ETH      C 5424   0.841   2.304   3.011
 1290ETH     C1 5425   0.850   2.160   2.963
 1290ETH      O 5426   0.951   2.091   3.033
 1290ETH      H 5427   0.820   2.307   3.119
 1290ETH     H1 5428   0.762   2.358   2.958
 1290ETH     H2 5429   0.936   2.355   2.995
 1290ETH     H3 5430   0.755   2.109   2.980
 1290ETH     H4 5431   0.871   2.157   2.856
 1290ETH     H5 5432   1.036   2.138   3.015
 1291ETH      C 5433   5.530   4.790   0.490
 1291ETH     C1 5434   5.450   4.662   0.507
 1291ETH      O 5435   5.518   4.554   0.445
 1291ETH      H 5436   5.630   4.779   0.534
 1291ETH     H1 5437   5.479   4.874   0.538
 1291ETH     H2 5438   5.544   4.813   0.384
 1291ETH     H3 5439   5.438   4.639   0.613
 1291ETH     H4 5440   5.351   4.673   0.463
 1291ETH     H5 5441   5.526   4.576   0.350
 1292ETH      C 5442   4.078   4.174   1.174
 1292ETH     C1 5443   4.149   4.293   1.113
 1292ETH      O 5444   4.255   4.336   1.196
 1292ETH      H 5445   4.149   4.091   1.190
 1292ETH     H1 5446   3.997   4.140   1.110
 1292ETH     H2 5447   4.038   4.200   1.272
 1292ETH     H3 5448   4.191   4.266   1.016
 1292ETH     H4 5449   4.080   4.376   1.098
 1292ETH     H5 5450   4.216   4.361   1.283
 1293ETH      C 5451   0.486   3.280   1.781
 1293ETH     C1 5452   0.620   3.295   1.710
 1293ETH      O 5453   0.724   3.243   1.791
 1293ETH      H 5454   0.466   3.175   1.804
 1293ETH     H1 5455   0.405   3.319   1.719
 1293ETH     H2 5456   0.487   3.334   1.876
 1293ETH     H3 5457   0.618   3.240   1.616
 1293ETH     H4 5458   0.640   3.400   1.688
 1293ETH     H5 5459   0.724   3.295   1.874
 1294ETH      C 5460   5.147   5.031   2.406
 1294ETH     C1 5461   5.273   4.958   2.363
 1294ETH      O 5462   5.364   4.949   2.471
 1294ETH      H 5463   5.099   4.977   2.490
 1294ETH     H1 5464   5.075   5.037   2.324
 1294ETH     H2 5465   5.170   5.131   2.441
 1294ETH     H3 5466   5.249   4.857   2.330
 1294ETH     H4 5467   5.321   5.011   2.280
 1294ETH     H5 5468   5.385   5.041   2.499
 1295ETH      C 5469   4.784   5.603   4.485
 1295ETH     C1 5470   4.811   5.453   4.484
 1295ETH      O 5471   4.750   5.394   4.371
 1295ETH      H 5472   4.823   5.649   4.394
 1295ETH     H1 5473   4.832   5.650   4.572
 1295ETH     H2 5474   4.677   5.623   4.489
 1295ETH     H3 5475   4.918   5.434   4.478
 1295ETH     H4 5476   4.772   5.406   4.574
 1295ETH     H5 5477   4.653   5.411   4.378
 1296ETH      C 5478   1.169   0.859   1.644
 1296ETH     C1 5479   1.081   0.886   1.766
 1296ETH      O 5480   1.068   0.768   1.842
 1296ETH      H 5481   1.268   0.824   1.676
 1296ETH     H1 5482   1.181   0.950   1.585
 1296ETH     H2 5483   1.126   0.781   1.582
 1296ETH     H3 5484   1.126   0.962   1.828
 1296ETH     H4 5485   0.983   0.920   1.734
 1296ETH     H5 5486   1.026   0.700   1.785
 1297ETH      C 5487   2.680   1.230   3.291
 1297ETH     C1 5488   2.559   1.301   3.233
 1297ETH      O 5489   2.542   1.427   3.294
 1297ETH      H 5490   2.770   1.291   3.275
 1297ETH     H1 5491   2.695   1.132   3.243
 1297ETH     H2 5492   2.669   1.216   3.398
 1297ETH     H3 5493   2.572   1.316   3.126
 1297ETH     H4 5494   2.469   1.241   3.249
 1297ETH     H5 5495   2.530   1.412   3.390
 1298ETH      C 5496   2.406   4.954   4.354
 1298ETH     C1 5497   2.267   4.906   4.394
 1298ETH      O 5498   2.171   4.955   4.302
 1298ETH      H 5499   2.430   4.919   4.252
 1298ETH     H1 5500   2.482   4.915   4.423
 1298ETH     H2 5501   2.410   5.062   4.353
 1298ETH     H3 5502   2.263   4.797   4.392
 1298ETH     H4 5503   2.242   4.940   4.494
 1298ETH     H5 5504   2.175   5.053   4.306
 1299ETH      C 5505   2.729   5.391   3.653
 1299ETH     C1 5506   2.795   5.462   3.771
 1299ETH      O 5507   2.935   5.445   3.765
 1299ETH      H 5508   2.767   5.431   3.559
 1299ETH     H1 5509   2.620   5.405   3.656
 1299ETH     H2 5510   2.752   5.285   3.655
 1299ETH     H3 5511   2.773   5.569   3.768
 1299ETH     H4 5512   2.758   5.422   3.865
 1299ETH     H5 5513   2.953   5.348   3.770
 1300ETH      C 5514   2.058   1.345   3.165
 1300ETH     C1 5515   1.977   1.221   3.200
 1300ETH      O 5516   2.038   1.106   3.144
 1300ETH      H 5517   2.161   1.336   3.202
 1300ETH     H1 5518   2.012   1.435   3.208
 1300ETH     H2 5519   2.064   1.357   3.057
 1300ETH     H3 5520   1.973   1.209   3.308
 1300ETH     H4 5521   1.876   1.230   3.162
 1300ETH     H5 5522   2.041   1.119   3.047
 1301ETH      C 5523   3.585   2.617   4.200
 1301ETH     C1 5524   3.733   2.582   4.190
 1301ETH      O 5525   3.809   2.669   4.271
 1301ETH      H 5526   3.552   2.610   4.304
 1301ETH     H1 5527   3.525   2.550   4.138
 1301ETH     H2 5528   3.569   2.720   4.167
 1301ETH     H3 5529   3.750   2.480   4.225
 1301ETH     H4 5530   3.768   2.589   4.087
 1301ETH     H5 5531   3.795   2.760   4.238
 1302ETH      C 5532   1.879   5.255   5.210
 1302ETH     C1 5533   1.773   5.364   5.203
 1302ETH      O 5534   1.678   5.347   5.306
 1302ETH      H 5535   1.929   5.258   5.308
 1302ETH     H1 5536   1.954   5.268   5.132
 1302ETH     H2 5537   1.833   5.157   5.200
 1302ETH     H3 5538   1.819   5.462   5.215
 1302ETH     H4 5539   1.722   5.362   5.106
 1302ETH     H5 5540   1.636   5.259   5.293
 1303ETH      C 5541   3.421   5.381   3.691
 1303ETH     C1 5542   3.294   5.432   3.625
 1303ETH      O 5543   3.201   5.327   3.610
 1303ETH      H 5544   3.398   5.338   3.789
 1303ETH     H1 5545   3.494   5.462   3.703
 1303ETH     H2 5546   3.466   5.302   3.630
 1303ETH     H3 5547   3.249   5.510   3.686
 1303ETH     H4 5548   3.316   5.475   3.527
 1303ETH     H5 5549   3.242   5.259   3.554
 1304ETH      C 5550   1.540   3.460   1.029
 1304ETH     C1 5551   1.399   3.410   1.052
 1304ETH      O 5552   1.319   3.435   0.938
 1304ETH      H 5553   1.584   3.411   0.942
 1304ETH     H1 5554   1.603   3.440   1.117
 1304ETH     H2 5555   1.540   3.567   1.010
 1304ETH     H3 5556   1.399   3.302   1.070
 1304ETH     H4 5557   1.354   3.459   1.139
 1304ETH     H5 5558   1.318   3.532   0.924
 1305ETH      C 5559   1.399   0.853   2.158
 1305ETH     C1 5560   1.407   0.813   2.012
 1305ETH      O 5561   1.277   0.802   1.957
 1305ETH      H 5562   1.347   0.949   2.168
 1305ETH     H1 5563   1.500   0.863   2.201
 1305ETH     H2 5564   1.343   0.780   2.215
 1305ETH     H3 5565   1.462   0.888   1.955
 1305ETH     H4 5566   1.458   0.717   2.001
 1305ETH     H5 5567   1.229   0.733   2.009
 1306ETH      C 5568   1.419   4.359   5.014
 1306ETH     C1 5569   1.288   4.430   4.980
 1306ETH      O 5570   1.310   4.526   4.879
 1306ETH      H 5571   1.460   4.311   4.924
 1306ETH     H1 5572   1.404   4.284   5.091
 1306ETH     H2 5573   1.493   4.432   5.048
 1306ETH     H3 5574   1.215   4.357   4.944
 1306ETH     H4 5575   1.247   4.479   5.068
 1306ETH     H5 5576   1.374   4.591   4.913
 1307ETH      C 5577   4.838   2.955   1.680
 1307ETH     C1 5578   4.954   2.901   1.597
 1307ETH      O 5579   4.985   2.769   1.636
 1307ETH      H 5580   4.749   2.890   1.666
 1307ETH     H1 5581   4.812   3.057   1.649
 1307ETH     H2 5582   4.862   2.954   1.786
 1307ETH     H3 5583   4.928   2.901   1.491
 1307ETH     H4 5584   5.042   2.964   1.611
 1307ETH     H5 5585   5.009   2.772   1.731
 1308ETH      C 5586   5.264   3.317   4.327
 1308ETH     C1 5587   5.266   3.225   4.447
 1308ETH      O 5588   5.167   3.264   4.540
 1308ETH      H 5589   5.165   3.315   4.279
 1308ETH     H1 5590   5.339   3.288   4.253
 1308ETH     H2 5591   5.282   3.421   4.357
 1308ETH     H3 5592   5.246   3.123   4.417
 1308ETH     H4 5593   5.364   3.228   4.496
 1308ETH     H5 5594   5.187   3.356   4.568
 1309ETH      C 5595   1.693   2.748   1.460
 1309ETH     C1 5596   1.555   2.716   1.406
 1309ETH      O 5597   1.565   2.628   1.295
 1309ETH      H 5598   1.745   2.656   1.490
 1309ETH     H1 5599   1.687   2.815   1.546
 1309ETH     H2 5600   1.754   2.795   1.382
 1309ETH     H3 5601   1.495   2.667   1.483
 1309ETH     H4 5602   1.504   2.807   1.375
 1309ETH     H5 5603   1.618   2.674   1.227
 1310ETH      C 5604   2.852   2.193   3.137
 1310ETH     C1 5605   2.995   2.237   3.114
 1310ETH      O 5606   3.031   2.337   3.206
 1310ETH      H 5607   2.840   2.155   3.239
 1310ETH     H1 5608   2.823   2.114   3.066
 1310ETH     H2 5609   2.784   2.277   3.126
 1310ETH     H3 5610   3.063   2.152   3.127
 1310ETH     H4 5611   3.008   2.276   3.012
 1310ETH     H5 5612   2.970   2.413   3.193
 1311ETH      C 5613   3.005   3.819   4.232
 1311ETH     C1 5614   3.067   3.798   4.369
 1311ETH      O 5615   3.030   3.671   4.420
 1311ETH      H 5616   3.037   3.740   4.163
 1311ETH     H1 5617   3.034   3.917   4.191
 1311ETH     H2 5618   2.896   3.815   4.238
 1311ETH     H3 5619   3.176   3.801   4.362
 1311ETH     H4 5620   3.035   3.875   4.438
 1311ETH     H5 5621   2.932   3.670   4.427
 1312ETH      C 5622   2.781   2.152   3.790
 1312ETH     C1 5623   2.899   2.248   3.788
 1312ETH      O 5624   2.864   2.369   3.851
 1312ETH      H 5625   2.749   2.132   3.893
 1312ETH     H1 5626   2.808   2.057   3.742
 1312ETH     H2 5627   2.696   2.196   3.737
 1312ETH     H3 5628   2.983   2.205   3.842
 1312ETH     H4 5629   2.930   2.268   3.686
 1312ETH     H5 5630   2.789   2.408   3.801
 1313ETH      C 5631   1.991   4.729   1.558
 1313ETH     C1 5632   2.001   4.579   1.583
 1313ETH      O 5633   2.038   4.554   1.717
 1313ETH      H 5634   1.918   4.774   1.626
 1313ETH     H1 5635   1.962   4.749   1.455
 1313ETH     H2 5636   2.087   4.777   1.578
 1313ETH     H3 5637   1.905   4.532   1.565
 1313ETH     H4 5638   2.075   4.534   1.516
 1313ETH     H5 5639   2.125   4.596   1.732
 1314ETH      C 5640   3.482   1.827   3.016
 1314ETH     C1 5641   3.342   1.781   2.980
 1314ETH      O 5642   3.273   1.883   2.910
 1314ETH      H 5643   3.538   1.855   2.926
 1314ETH     H1 5644   3.537   1.749   3.069
 1314ETH     H2 5645   3.477   1.916   3.079
 1314ETH     H3 5646   3.347   1.693   2.915
 1314ETH     H4 5647   3.286   1.754   3.069
 1314ETH     H5 5648   3.268   1.960   2.970
 1315ETH      C 5649   4.824   4.805   5.204
 1315ETH     C1 5650   4.678   4.824   5.166
 1315ETH      O 5651   4.638   4.722   5.077
 1315ETH      H 5652   4.838   4.707   5.251
 1315ETH     H1 5653   4.856   4.883   5.274
 1315ETH     H2 5654   4.887   4.809   5.115
 1315ETH     H3 5655   4.615   4.818   5.255
 1315ETH     H4 5656   4.663   4.921   5.119
 1315ETH     H5 5657   4.694   4.729   4.997
 1316ETH      C 5658   4.886   0.328   3.753
 1316ETH     C1 5659   4.749   0.309   3.817
 1316ETH      O 5660   4.761   0.237   3.938
 1316ETH      H 5661   4.952   0.382   3.822
 1316ETH     H1 5662   4.877   0.384   3.660
 1316ETH     H2 5663   4.932   0.231   3.733
 1316ETH     H3 5664   4.704   0.406   3.839
 1316ETH     H4 5665   4.682   0.255   3.750
 1316ETH     H5 5666   4.800   0.150   3.917
 1317ETH      C 5667   1.912   0.500   0.964
 1317ETH     C1 5668   1.961   0.630   0.903
 1317ETH      O 5669   1.933   0.632   0.764
 1317ETH      H 5670   1.804   0.489   0.948
 1317ETH     H1 5671   1.933   0.497   1.071
 1317ETH     H2 5672   1.961   0.414   0.917
 1317ETH     H3 5673   1.911   0.715   0.949
 1317ETH     H4 5674   2.069   0.641   0.917
 1317ETH     H5 5675   1.980   0.556   0.723
 1318ETH      C 5676   3.132   1.629   1.059
 1318ETH     C1 5677   3.124   1.549   0.930
 1318ETH      O 5678   3.016   1.594   0.851
 1318ETH      H 5679   3.145   1.736   1.036
 1318ETH     H1 5680   3.216   1.595   1.120
 1318ETH     H2 5681   3.040   1.618   1.116
 1318ETH     H3 5682   3.216   1.561   0.872
 1318ETH     H4 5683   3.111   1.443   0.951
 1318ETH     H5 5684   2.934   1.581   0.904
 1319ETH      C 5685   4.895   0.487   1.586
 1319ETH     C1 5686   4.749   0.497   1.545
 1319ETH      O 5687   4.667   0.427   1.636
 1319ETH      H 5688   4.909   0.528   1.687
 1319ETH     H1 5689   4.959   0.542   1.516
 1319ETH     H2 5690   4.927   0.383   1.588
 1319ETH     H3 5691   4.717   0.602   1.545
 1319ETH     H4 5692   4.734   0.457   1.445
 1319ETH     H5 5693   4.696   0.333   1.635
 1320ETH      C 5694   2.758   1.247   5.153
 1320ETH     C1 5695   2.788   1.396   5.141
 1320ETH      O 5696   2.675   1.472   5.180
 1320ETH      H 5697   2.731   1.223   5.257
 1320ETH     H1 5698   2.845   1.188   5.124
 1320ETH     H2 5699   2.673   1.220   5.090
 1320ETH     H3 5700   2.871   1.423   5.205
 1320ETH     H4 5701   2.814   1.422   5.038
 1320ETH     H5 5702   2.601   1.447   5.120
 1321ETH      C 5703   1.544   0.410   1.059
 1321ETH     C1 5704   1.469   0.290   1.115
 1321ETH      O 5705   1.360   0.257   1.030
 1321ETH      H 5706   1.580   0.388   0.958
 1321ETH     H1 5707   1.629   0.435   1.123
 1321ETH     H2 5708   1.477   0.496   1.051
 1321ETH     H3 5709   1.535   0.203   1.120
 1321ETH     H4 5710   1.431   0.311   1.215
 1321ETH     H5 5711   1.301   0.335   1.027
 1322ETH      C 5712   5.248   3.468   0.542
 1322ETH     C1 5713   5.182   3.348   0.476
 1322ETH      O 5714   5.113   3.271   0.573
 1322ETH      H 5715   5.173   3.530   0.592
 1322ETH     H1 5716   5.302   3.528   0.468
 1322ETH     H2 5717   5.319   3.435   0.619
 1322ETH     H3 5718   5.111   3.381   0.401
 1322ETH     H4 5719   5.257   3.285   0.428
 1322ETH     H5 5720   5.179   3.241   0.639
 1323ETH      C 5721   3.450   4.154   4.880
 1323ETH     C1 5722   3.409   4.268   4.972
 1323ETH      O 5723   3.379   4.383   4.895
 1323ETH      H 5724   3.368   4.131   4.810
 1323ETH     H1 5725   3.472   4.064   4.938
 1323ETH     H2 5726   3.537   4.181   4.821
 1323ETH     H3 5727   3.321   4.241   5.029
 1323ETH     H4 5728   3.490   4.292   5.041
 1323ETH     H5 5729   3.459   4.407   4.845
 1324ETH      C 5730   4.085   3.643   5.309
 1324ETH     C1 5731   4.219   3.659   5.380
 1324ETH      O 5732   4.324   3.621   5.295
 1324ETH      H 5733   4.083   3.705   5.218
 1324ETH     H1 5734   4.003   3.673   5.374
 1324ETH     H2 5735   4.070   3.540   5.278
 1324ETH     H3 5736   4.234   3.763   5.410
 1324ETH     H4 5737   4.222   3.597   5.470
 1324ETH     H5 5738   4.310   3.527   5.270
 1325ETH      C 5739   0.209   3.906   1.686
 1325ETH     C1 5740   0.344   3.849   1.725
 1325ETH      O 5741   0.415   3.809   1.610
 1325ETH      H 5742   0.222   3.992   1.619
 1325ETH     H1 5743   0.153   3.938   1.775
 1325ETH     H2 5744   0.150   3.831   1.632
 1325ETH     H3 5745   0.403   3.924   1.777
 1325ETH     H4 5746   0.332   3.763   1.791
 1325ETH     H5 5747   0.362   3.740   1.564
 1326ETH      C 5748   4.184   3.818   4.132
 1326ETH     C1 5749   4.038   3.823   4.171
 1326ETH      O 5750   3.965   3.901   4.078
 1326ETH      H 5751   4.195   3.775   4.031
 1326ETH     H1 5752   4.241   3.757   4.203
 1326ETH     H2 5753   4.227   3.918   4.129
 1326ETH     H3 5754   3.995   3.723   4.172
 1326ETH     H4 5755   4.026   3.866   4.271
 1326ETH     H5 5756   4.004   3.991   4.079
 1327ETH      C 5757   1.949   1.524   5.068
 1327ETH     C1 5758   1.962   1.386   5.132
 1327ETH      O 5759   2.023   1.397   5.259
 1327ETH      H 5760   1.890   1.590   5.133
 1327ETH     H1 5761   1.900   1.516   4.970
 1327ETH     H2 5762   2.047   1.569   5.056
 1327ETH     H3 5763   1.863   1.342   5.146
 1327ETH     H4 5764   2.021   1.320   5.069
 1327ETH     H5 5765   2.112   1.436   5.245
 1328ETH      C 5766   1.954   2.692   5.215
 1328ETH     C1 5767   2.074   2.738   5.297
 1328ETH      O 5768   2.062   2.875   5.329
 1328ETH      H 5769   1.861   2.709   5.271
 1328ETH     H1 5770   1.962   2.586   5.191
 1328ETH     H2 5771   1.947   2.750   5.123
 1328ETH     H3 5772   2.080   2.682   5.390
 1328ETH     H4 5773   2.167   2.722   5.241
 1328ETH     H5 5774   2.058   2.925   5.244
 1329ETH      C 5775   2.849   3.583   5.537
 1329ETH     C1 5776   2.939   3.462   5.552
 1329ETH      O 5777   2.911   3.367   5.452
 1329ETH      H 5778   2.864   3.628   5.437
 1329ETH     H1 5779   2.872   3.658   5.613
 1329ETH     H2 5780   2.744   3.554   5.544
 1329ETH     H3 5781   3.044   3.491   5.542
 1329ETH     H4 5782   2.925   3.416   5.650
 1329ETH     H5 5783   2.817   3.340   5.462
 1330ETH      C 5784   1.907   0.939   3.353
 1330ETH     C1 5785   1.856   0.798   3.383
 1330ETH      O 5786   1.721   0.785   3.341
 1330ETH      H 5787   1.899   0.959   3.245
 1330ETH     H1 5788   2.011   0.949   3.384
 1330ETH     H2 5789   1.846   1.013   3.404
 1330ETH     H3 5790   1.915   0.724   3.329
 1330ETH     H4 5791   1.862   0.777   3.490
 1330ETH     H5 5792   1.669   0.851   3.391
 1331ETH      C 5793   2.263   0.456   1.666
 1331ETH     C1 5794   2.201   0.558   1.571
 1331ETH      O 5795   2.154   0.669   1.644
 1331ETH      H 5796   2.346   0.502   1.722
 1331ETH     H1 5797   2.301   0.370   1.611
 1331ETH     H2 5798   2.189   0.422   1.739
 1331ETH     H3 5799   2.275   0.593   1.499
 1331ETH     H4 5800   2.118   0.513   1.516
 1331ETH     H5 5801   2.086   0.637   1.707
 1332ETH      C 5802   4.021   2.300   0.798
 1332ETH     C1 5803   3.921   2.288   0.912
 1332ETH      O 5804   3.799   2.234   0.864
 1332ETH      H 5805   4.039   2.202   0.752
 1332ETH     H1 5806   4.116   2.340   0.834
 1332ETH     H2 5807   3.982   2.365   0.720
 1332ETH     H3 5808   3.960   2.221   0.989
 1332ETH     H4 5809   3.902   2.385   0.957
 1332ETH     H5 5810   3.765   2.296   0.796
 1333ETH      C 5811   3.247   2.111   5.460
 1333ETH     C1 5812   3.248   1.966   5.507
 1333ETH      O 5813   3.230   1.879   5.397
 1333ETH      H 5814   3.326   2.127   5.386
 1333ETH     H1 5815   3.262   2.179   5.544
 1333ETH     H2 5816   3.152   2.134   5.412
 1333ETH     H3 5817   3.344   1.942   5.553
 1333ETH     H4 5818   3.170   1.948   5.580
 1333ETH     H5 5819   3.143   1.900   5.357
 1334ETH      C 5820   5.105   4.001   5.525
 1334ETH     C1 5821   5.069   4.146   5.553
 1334ETH      O 5822   5.121   4.230   5.452
 1334ETH      H 5823   5.065   3.971   5.427
 1334ETH     H1 5824   5.065   3.935   5.602
 1334ETH     H2 5825   5.213   3.989   5.521
 1334ETH     H3 5826   4.961   4.158   5.556
 1334ETH     H4 5827   5.109   4.178   5.650
 1334ETH     H5 5828   5.218   4.220   5.452
 1335ETH      C 5829   1.749   1.548   0.251
 1335ETH     C1 5830   1.753   1.469   0.381
 1335ETH      O 5831   1.632   1.486   0.453
 1335ETH      H 5832   1.664   1.515   0.190
 1335ETH     H1 5833   1.842   1.535   0.195
 1335ETH     H2 5834   1.734   1.654   0.272
 1335ETH     H3 5835   1.766   1.363   0.360
 1335ETH     H4 5836   1.837   1.502   0.443
 1335ETH     H5 5837   1.623   1.581   0.472
 1336ETH      C 5838   1.557   5.050   4.254
 1336ETH     C1 5839   1.504   5.000   4.120
 1336ETH      O 5840   1.399   5.083   4.076
 1336ETH      H 5841   1.593   5.153   4.245
 1336ETH     H1 5842   1.640   4.987   4.289
 1336ETH     H2 5843   1.478   5.049   4.329
 1336ETH     H3 5844   1.583   5.003   4.045
 1336ETH     H4 5845   1.468   4.898   4.129
 1336ETH     H5 5846   1.328   5.079   4.144
 1337ETH      C 5847   3.007   4.885   1.323
 1337ETH     C1 5848   3.086   4.766   1.376
 1337ETH      O 5849   3.148   4.800   1.498
 1337ETH      H 5850   2.932   4.915   1.396
 1337ETH     H1 5851   2.958   4.859   1.228
 1337ETH     H2 5852   3.073   4.970   1.306
 1337ETH     H3 5853   3.020   4.682   1.394
 1337ETH     H4 5854   3.163   4.735   1.305
 1337ETH     H5 5855   3.209   4.875   1.481
 1338ETH      C 5856   1.878   1.650   4.170
 1338ETH     C1 5857   1.874   1.801   4.187
 1338ETH      O 5858   1.945   1.863   4.081
 1338ETH      H 5859   1.833   1.621   4.074
 1338ETH     H1 5860   1.822   1.601   4.251
 1338ETH     H2 5861   1.980   1.614   4.170
 1338ETH     H3 5862   1.772   1.837   4.185
 1338ETH     H4 5863   1.919   1.830   4.281
 1338ETH     H5 5864   2.037   1.831   4.084
 1339ETH      C 5865   4.369   4.638   1.530
 1339ETH     C1 5866   4.470   4.740   1.480
 1339ETH      O 5867   4.497   4.835   1.581
 1339ETH      H 5868   4.407   4.587   1.619
 1339ETH     H1 5869   4.348   4.563   1.453
 1339ETH     H2 5870   4.275   4.687   1.558
 1339ETH     H3 5871   4.563   4.691   1.454
 1339ETH     H4 5872   4.432   4.792   1.392
 1339ETH     H5 5873   4.412   4.880   1.603
 1340ETH      C 5874   0.370   1.751   0.639
 1340ETH     C1 5875   0.223   1.775   0.607
 1340ETH      O 5876   0.150   1.654   0.620
 1340ETH      H 5877   0.380   1.711   0.741
 1340ETH     H1 5878   0.427   1.843   0.631
 1340ETH     H2 5879   0.412   1.676   0.571
 1340ETH     H3 5880   0.181   1.848   0.677
 1340ETH     H4 5881   0.211   1.813   0.506
 1340ETH     H5 5882   0.188   1.590   0.556
 1341ETH      C 5883   3.738   3.508   3.269
 1341ETH     C1 5884   3.821   3.631   3.234
 1341ETH      O 5885   3.810   3.728   3.336
 1341ETH      H 5886   3.772   3.465   3.364
 1341ETH     H1 5887   3.747   3.432   3.191
 1341ETH     H2 5888   3.633   3.535   3.281
 1341ETH     H3 5889   3.926   3.604   3.223
 1341ETH     H4 5890   3.787   3.674   3.139
 1341ETH     H5 5891   3.716   3.752   3.343
 1342ETH      C 5892   3.144   2.684   4.524
 1342ETH     C1 5893   3.135   2.546   4.462
 1342ETH      O 5894   3.260   2.481   4.469
 1342ETH      H 5895   3.175   2.676   4.629
 1342ETH     H1 5896   3.047   2.735   4.520
 1342ETH     H2 5897   3.218   2.744   4.472
 1342ETH     H3 5898   3.061   2.485   4.515
 1342ETH     H4 5899   3.104   2.552   4.357
 1342ETH     H5 5900   3.324   2.535   4.420
 1343ETH      C 5901   4.606   4.732   3.913
 1343ETH     C1 5902   4.594   4.603   3.992
 1343ETH      O 5903   4.714   4.577   4.061
 1343ETH      H 5904   4.628   4.816   3.980
 1343ETH     H1 5905   4.512   4.753   3.859
 1343ETH     H2 5906   4.687   4.725   3.841
 1343ETH     H3 5907   4.513   4.611   4.065
 1343ETH     H4 5908   4.572   4.519   3.926
 1343ETH     H5 5909   4.785   4.569   3.994
 1344ETH      C 5910   4.397   5.208   1.675
 1344ETH     C1 5911   4.470   5.332   1.727
 1344ETH      O 5912   4.591   5.295   1.789
 1344ETH      H 5913   4.461   5.154   1.603
 1344ETH     H1 5914   4.304   5.236   1.625
 1344ETH     H2 5915   4.375   5.140   1.757
 1344ETH     H3 5916   4.493   5.399   1.644
 1344ETH     H4 5917   4.407   5.386   1.798
 1344ETH     H5 5918   4.568   5.235   1.864
 1345ETH      C 5919   4.427   1.764   2.484
 1345ETH     C1 5920   4.331   1.655   2.438
 1345ETH      O 5921   4.198   1.689   2.472
 1345ETH      H 5922   4.400   1.860   2.437
 1345ETH     H1 5923   4.530   1.739   2.457
 1345ETH     H2 5924   4.420   1.777   2.592
 1345ETH     H3 5925   4.337   1.643   2.330
 1345ETH     H4 5926   4.357   1.559   2.484
 1345ETH     H5 5927   4.195   1.698   2.570
 1346ETH      C 5928   1.934   2.011   2.550
 1346ETH     C1 5929   1.951   2.101   2.429
 1346ETH      O 5930   2.089   2.114   2.398
 1346ETH      H 5931   1.977   1.912   2.530
 1346ETH     H1 5932   1.828   1.999   2.575
 1346ETH     H2 5933   1.986   2.052   2.637
 1346ETH     H3 5934   1.900   2.058   2.343
 1346ETH     H4 5935   1.909   2.200   2.449
 1346ETH     H5 5936   2.133   2.154   2.475
 1347ETH      C 5937   2.553   3.521   0.733
 1347ETH     C1 5938   2.615   3.385   0.759
 1347ETH      O 5939   2.536   3.312   0.851
 1347ETH      H 5940   2.451   3.509   0.693
 1347ETH     H1 5941   2.613   3.578   0.661
 1347ETH     H2 5942   2.545   3.577   0.826
 1347ETH     H3 5943   2.621   3.327   0.666
 1347ETH     H4 5944   2.716   3.395   0.799
 1347ETH     H5 5945   2.533   3.363   0.934
 1348ETH      C 5946   3.108   3.363   1.474
 1348ETH     C1 5947   3.039   3.486   1.531
 1348ETH      O 5948   3.135   3.574   1.588
 1348ETH      H 5949   3.180   3.393   1.397
 1348ETH     H1 5950   3.034   3.296   1.429
 1348ETH     H2 5951   3.162   3.310   1.552
 1348ETH     H3 5952   2.986   3.540   1.453
 1348ETH     H4 5953   2.967   3.458   1.608
 1348ETH     H5 5954   3.181   3.524   1.659
 1349ETH      C 5955   1.167   1.373   3.417
 1349ETH     C1 5956   1.060   1.341   3.520
 1349ETH      O 5957   1.067   1.205   3.558
 1349ETH      H 5958   1.266   1.350   3.457
 1349ETH     H1 5959   1.163   1.478   3.387
 1349ETH     H2 5960   1.153   1.310   3.328
 1349ETH     H3 5961   1.075   1.402   3.609
 1349ETH     H4 5962   0.960   1.362   3.480
 1349ETH     H5 5963   1.052   1.152   3.477
 1350ETH      C 5964   2.884   0.791   1.514
 1350ETH     C1 5965   2.903   0.786   1.664
 1350ETH      O 5966   3.018   0.710   1.696
 1350ETH      H 5967   2.972   0.835   1.466
 1350ETH     H1 5968   2.796   0.850   1.488
 1350ETH     H2 5969   2.873   0.690   1.473
 1350ETH     H3 5970   2.917   0.887   1.704
 1350ETH     H4 5971   2.817   0.741   1.713
 1350ETH     H5 5972   3.005   0.620   1.661
 1351ETH      C 5973   1.487   2.913   5.221
 1351ETH     C1 5974   1.359   2.978   5.273
 1351ETH      O 5975   1.297   2.894   5.368
 1351ETH      H 5976   1.555   2.894   5.305
 1351ETH     H1 5977   1.536   2.978   5.148
 1351ETH     H2 5978   1.465   2.817   5.175
 1351ETH     H3 5979   1.382   3.073   5.321
 1351ETH     H4 5980   1.289   2.997   5.191
 1351ETH     H5 5981   1.276   2.809   5.323
 1352ETH      C 5982   4.025   0.902   2.980
 1352ETH     C1 5983   4.003   1.013   2.878
 1352ETH      O 5984   3.870   1.061   2.887
 1352ETH      H 5985   4.005   0.939   3.081
 1352ETH     H1 5986   4.128   0.865   2.975
 1352ETH     H2 5987   3.957   0.819   2.961
 1352ETH     H3 5988   4.071   1.097   2.899
 1352ETH     H4 5989   4.022   0.978   2.777
 1352ETH     H5 5990   3.811   0.986   2.867
 1353ETH      C 5991   5.562   1.919   0.951
 1353ETH     C1 5992   5.562   1.782   0.885
 1353ETH      O 5993   5.564   1.680   0.983
 1353ETH      H 5994   5.474   1.929   1.016
 1353ETH     H1 5995   5.559   1.998   0.876
 1353ETH     H2 5996   5.650   1.931   1.014
 1353ETH     H3 5997   5.473   1.769   0.824
 1353ETH     H4 5998   5.650   1.771   0.821
 1353ETH     H5 5999   5.645   1.692   1.036
 1354ETH      C 6000   1.624   2.279   2.652
 1354ETH     C1 6001   1.539   2.156   2.621
 1354ETH      O 6002   1.530   2.137   2.481
 1354ETH      H 6003   1.724   2.267   2.609
 1354ETH     H1 6004   1.632   2.293   2.760
 1354ETH     H2 6005   1.579   2.368   2.607
 1354ETH     H3 6006   1.585   2.067   2.664
 1354ETH     H4 6007   1.439   2.167   2.662
 1354ETH     H5 6008   1.488   2.217   2.444
 1355ETH      C 6009   3.272   2.144   4.810
 1355ETH     C1 6010   3.304   2.121   4.663
 1355ETH      O 6011   3.199   2.172   4.582
 1355ETH      H 6012   3.258   2.251   4.830
 1355ETH     H1 6013   3.353   2.106   4.873
 1355ETH     H2 6014   3.179   2.093   4.837
 1355ETH     H3 6015   3.396   2.173   4.636
 1355ETH     H4 6016   3.317   2.015   4.642
 1355ETH     H5 6017   3.118   2.124   4.606
 1356ETH      C 6018   1.616   3.394   1.900
 1356ETH     C1 6019   1.686   3.268   1.851
 1356ETH      O 6020   1.746   3.201   1.959
 1356ETH      H 6021   1.540   3.368   1.975
 1356ETH     H1 6022   1.568   3.447   1.817
 1356ETH     H2 6023   1.687   3.461   1.948
 1356ETH     H3 6024   1.614   3.201   1.805
 1356ETH     H4 6025   1.763   3.293   1.777
 1356ETH     H5 6026   1.812   3.262   2.000
 1357ETH      C 6027   2.580   5.222   4.941
 1357ETH     C1 6028   2.516   5.343   4.876
 1357ETH      O 6029   2.600   5.456   4.889
 1357ETH      H 6030   2.678   5.201   4.895
 1357ETH     H1 6031   2.516   5.134   4.930
 1357ETH     H2 6032   2.598   5.240   5.047
 1357ETH     H3 6033   2.501   5.325   4.769
 1357ETH     H4 6034   2.420   5.365   4.921
 1357ETH     H5 6035   2.612   5.472   4.985
 1358ETH      C 6036   2.161   1.364   4.242
 1358ETH     C1 6037   2.273   1.261   4.231
 1358ETH      O 6038   2.302   1.235   4.095
 1358ETH      H 6039   2.190   1.457   4.192
 1358ETH     H1 6040   2.139   1.385   4.347
 1358ETH     H2 6041   2.071   1.327   4.193
 1358ETH     H3 6042   2.363   1.299   4.278
 1358ETH     H4 6043   2.244   1.168   4.280
 1358ETH     H5 6044   2.220   1.200   4.054
 1359ETH      C 6045   0.836   5.452   2.017
 1359ETH     C1 6046   0.894   5.502   1.885
 1359ETH      O 6047   1.005   5.423   1.847
 1359ETH      H 6048   0.805   5.348   2.007
 1359ETH     H1 6049   0.750   5.513   2.046
 1359ETH     H2 6050   0.911   5.457   2.095
 1359ETH     H3 6051   0.819   5.496   1.806
 1359ETH     H4 6052   0.926   5.606   1.894
 1359ETH     H5 6053   1.072   5.430   1.918
 1360ETH      C 6054   2.652   0.802   0.238
 1360ETH     C1 6055   2.582   0.894   0.338
 1360ETH      O 6056   2.675   0.983   0.394
 1360ETH      H 6057   2.700   0.861   0.159
 1360ETH     H1 6058   2.580   0.732   0.193
 1360ETH     H2 6059   2.730   0.744   0.288
 1360ETH     H3 6060   2.505   0.952   0.287
 1360ETH     H4 6061   2.535   0.836   0.417
 1360ETH     H5 6062   2.743   0.930   0.441
 1361ETH      C 6063   0.385   2.424   3.696
 1361ETH     C1 6064   0.256   2.397   3.621
 1361ETH      O 6065   0.150   2.373   3.712
 1361ETH      H 6066   0.373   2.510   3.763
 1361ETH     H1 6067   0.467   2.443   3.627
 1361ETH     H2 6068   0.411   2.338   3.759
 1361ETH     H3 6069   0.229   2.484   3.560
 1361ETH     H4 6070   0.266   2.311   3.555
 1361ETH     H5 6071   0.174   2.295   3.764
 1362ETH      C 6072   2.194   5.263   1.266
 1362ETH     C1 6073   2.169   5.341   1.137
 1362ETH      O 6074   2.223   5.271   1.027
 1362ETH      H 6075   2.148   5.163   1.259
 1362ETH     H1 6076   2.152   5.316   1.352
 1362ETH     H2 6077   2.301   5.248   1.281
 1362ETH     H3 6078   2.062   5.353   1.121
 1362ETH     H4 6079   2.215   5.440   1.143
 1362ETH     H5 6080   2.319   5.261   1.042
 1363ETH      C 6081   0.394   2.948   4.224
 1363ETH     C1 6082   0.400   2.813   4.292
 1363ETH      O 6083   0.343   2.821   4.421
 1363ETH      H 6084   0.290   2.982   4.216
 1363ETH     H1 6085   0.437   2.943   4.124
 1363ETH     H2 6086   0.448   3.023   4.282
 1363ETH     H3 6087   0.344   2.739   4.235
 1363ETH     H4 6088   0.504   2.779   4.301
 1363ETH     H5 6089   0.395   2.886   4.473
 1364ETH      C 6090   1.018   1.926   1.319
 1364ETH     C1 6091   1.091   1.872   1.197
 1364ETH      O 6092   1.230   1.876   1.218
 1364ETH      H 6093   1.043   1.866   1.407
 1364ETH     H1 6094   0.909   1.923   1.304
 1364ETH     H2 6095   1.048   2.028   1.340
 1364ETH     H3 6096   1.062   1.769   1.177
 1364ETH     H4 6097   1.067   1.932   1.109
 1364ETH     H5 6098   1.255   1.969   1.234
 1365ETH      C 6099   1.702   1.290   2.169
 1365ETH     C1 6100   1.633   1.236   2.294
 1365ETH      O 6101   1.527   1.321   2.332
 1365ETH      H 6102   1.629   1.298   2.087
 1365ETH     H1 6103   1.784   1.225   2.138
 1365ETH     H2 6104   1.741   1.390   2.187
 1365ETH     H3 6105   1.593   1.137   2.275
 1365ETH     H4 6106   1.704   1.229   2.376
 1365ETH     H5 6107   1.565   1.410   2.350
 1366ETH      C 6108   1.592   4.923   1.515
 1366ETH     C1 6109   1.607   4.785   1.453
 1366ETH      O 6110   1.743   4.761   1.421
 1366ETH      H 6111   1.653   4.930   1.606
 1366ETH     H1 6112   1.487   4.942   1.541
 1366ETH     H2 6113   1.626   5.000   1.446
 1366ETH     H3 6114   1.574   4.708   1.523
 1366ETH     H4 6115   1.547   4.777   1.362
 1366ETH     H5 6116   1.771   4.830   1.357
 1367ETH      C 6117   0.891   3.220   4.555
 1367ETH     C1 6118   0.962   3.295   4.667
 1367ETH      O 6119   1.021   3.413   4.617
 1367ETH      H 6120   0.814   3.284   4.510
 1367ETH     H1 6121   0.844   3.129   4.593
 1367ETH     H2 6122   0.962   3.194   4.477
 1367ETH     H3 6123   0.890   3.323   4.745
 1367ETH     H4 6124   1.039   3.233   4.712
 1367ETH     H5 6125   1.086   3.386   4.548
 1368ETH      C 6126   0.632   0.825   4.735
 1368ETH     C1 6127   0.577   0.699   4.800
 1368ETH      O 6128   0.438   0.713   4.825
 1368ETH      H 6129   0.578   0.845   4.641
 1368ETH     H1 6130   0.738   0.814   4.714
 1368ETH     H2 6131   0.616   0.911   4.800
 1368ETH     H3 6132   0.590   0.613   4.733
 1368ETH     H4 6133   0.628   0.678   4.893
 1368ETH     H5 6134   0.428   0.789   4.886
 1369ETH      C 6135   5.212   4.444   4.689
 1369ETH     C1 6136   5.239   4.569   4.607
 1369ETH      O 6137   5.298   4.668   4.689
 1369ETH      H 6138   5.305   4.405   4.732
 1369ETH     H1 6139   5.167   4.366   4.626
 1369ETH     H2 6140   5.144   4.466   4.772
 1369ETH     H3 6141   5.308   4.547   4.525
 1369ETH     H4 6142   5.147   4.609   4.565
 1369ETH     H5 6143   5.235   4.688   4.761
 1370ETH      C 6144   2.928   0.939   0.833
 1370ETH     C1 6145   2.798   0.976   0.903
 1370ETH      O 6146   2.719   1.057   0.819
 1370ETH      H 6147   2.907   0.886   0.739
 1370ETH     H1 6148   2.989   0.874   0.897
 1370ETH     H2 6149   2.984   1.029   0.808
 1370ETH     H3 6150   2.741   0.886   0.926
 1370ETH     H4 6151   2.818   1.028   0.996
 1370ETH     H5 6152   2.771   1.139   0.800
 1371ETH      C 6153   1.839   3.595   3.399
 1371ETH     C1 6154   1.977   3.538   3.431
 1371ETH      O 6155   1.990   3.519   3.571
 1371ETH      H 6156   1.761   3.527   3.435
 1371ETH     H1 6157   1.827   3.609   3.292
 1371ETH     H2 6158   1.825   3.691   3.450
 1371ETH     H3 6159   1.990   3.442   3.382
 1371ETH     H4 6160   2.055   3.606   3.396
 1371ETH     H5 6161   1.980   3.606   3.613
 1372ETH      C 6162   5.476   3.976   2.380
 1372ETH     C1 6163   5.347   3.895   2.370
 1372ETH      O 6164   5.238   3.981   2.341
 1372ETH      H 6165   5.494   4.029   2.285
 1372ETH     H1 6166   5.561   3.910   2.401
 1372ETH     H2 6167   5.468   4.051   2.458
 1372ETH     H3 6168   5.355   3.822   2.290
 1372ETH     H4 6169   5.328   3.843   2.464
 1372ETH     H5 6170   5.232   4.046   2.415
 1373ETH      C 6171   1.998   2.713   1.882
 1373ETH     C1 6172   1.974   2.810   1.767
 1373ETH      O 6173   1.836   2.841   1.757
 1373ETH      H 6174   1.962   2.757   1.976
 1373ETH     H1 6175   2.104   2.689   1.892
 1373ETH     H2 6176   1.942   2.621   1.866
 1373ETH     H3 6177   2.029   2.903   1.784
 1373ETH     H4 6178   2.008   2.767   1.673
 1373ETH     H5 6179   1.789   2.756   1.740
 1374ETH      C 6180   3.341   2.005   3.678
 1374ETH     C1 6181   3.252   2.034   3.798
 1374ETH      O 6182   3.193   2.161   3.786
 1374ETH      H 6183   3.283   2.010   3.585
 1374ETH     H1 6184   3.387   1.906   3.686
 1374ETH     H2 6185   3.420   2.080   3.671
 1374ETH     H3 6186   3.173   1.959   3.804
 1374ETH     H4 6187   3.310   2.030   3.891
 1374ETH     H5 6188   3.265   2.227   3.782
 1375ETH      C 6189   4.108   2.963   3.444
 1375ETH     C1 6190   4.057   2.989   3.302
 1375ETH      O 6191   4.155   2.952   3.208
 1375ETH      H 6192   4.134   2.857   3.456
 1375ETH     H1 6193   4.031   2.990   3.517
 1375ETH     H2 6194   4.198   3.021   3.463
 1375ETH     H3 6195   3.967   2.929   3.283
 1375ETH     H4 6196   4.031   3.094   3.289
 1375ETH     H5 6197   4.234   3.007   3.226
 1376ETH      C 6198   0.830   4.563   5.524
 1376ETH     C1 6199   0.680   4.536   5.519
 1376ETH      O 6200   0.608   4.657   5.530
 1376ETH      H 6201   0.859   4.631   5.443
 1376ETH     H1 6202   0.886   4.470   5.514
 1376ETH     H2 6203   0.857   4.612   5.618
 1376ETH     H3 6204   0.654   4.489   5.425
 1376ETH     H4 6205   0.651   4.469   5.600
 1376ETH     H5 6206   0.632   4.698   5.616
 1377ETH      C 6207   1.386   1.810   2.568
 1377ETH     C1 6208   1.381   1.792   2.417
 1377ETH      O 6209   1.470   1.691   2.376
 1377ETH      H 6210   1.361   1.715   2.618
 1377ETH     H1 6211   1.316   1.887   2.600
 1377ETH     H2 6212   1.487   1.837   2.599
 1377ETH     H3 6213   1.280   1.763   2.386
 1377ETH     H4 6214   1.406   1.885   2.366
 1377ETH     H5 6215   1.560   1.719   2.403
 1378ETH      C 6216   1.161   0.548   5.523
 1378ETH     C1 6217   1.141   0.496   5.381
 1378ETH      O 6218   1.013   0.438   5.369
 1378ETH      H 6219   1.085   0.623   5.547
 1378ETH     H1 6220   1.260   0.594   5.533
 1378ETH     H2 6221   1.152   0.467   5.595
 1378ETH     H3 6222   1.148   0.578   5.310
 1378ETH     H4 6223   1.217   0.421   5.357
 1378ETH     H5 6224   1.008   0.364   5.433
 1379ETH      C 6225   2.783   4.180   2.929
 1379ETH     C1 6226   2.869   4.194   3.054
 1379ETH      O 6227   2.977   4.281   3.028
 1379ETH      H 6228   2.745   4.278   2.897
 1379ETH     H1 6229   2.698   4.113   2.948
 1379ETH     H2 6230   2.842   4.139   2.847
 1379ETH     H3 6231   2.810   4.236   3.135
 1379ETH     H4 6232   2.907   4.097   3.086
 1379ETH     H5 6233   3.030   4.241   2.956
 1380ETH      C 6234   4.903   4.435   1.752
 1380ETH     C1 6235   4.759   4.394   1.731
 1380ETH      O 6236   4.676   4.508   1.718
 1380ETH      H 6237   4.938   4.497   1.667
 1380ETH     H1 6238   4.968   4.348   1.761
 1380ETH     H2 6239   4.913   4.496   1.842
 1380ETH     H3 6240   4.749   4.335   1.639
 1380ETH     H4 6241   4.723   4.333   1.814
 1380ETH     H5 6242   4.685   4.559   1.801
 1381ETH      C 6243   1.626   4.380   1.346
 1381ETH     C1 6244   1.574   4.518   1.308
 1381ETH      O 6245   1.472   4.557   1.398
 1381ETH      H 6246   1.666   4.381   1.448
 1381ETH     H1 6247   1.705   4.348   1.277
 1381ETH     H2 6248   1.545   4.306   1.343
 1381ETH     H3 6249   1.654   4.591   1.313
 1381ETH     H4 6250   1.533   4.517   1.207
 1381ETH     H5 6251   1.400   4.491   1.392
 1382ETH      C 6252   0.549   4.214   4.906
 1382ETH     C1 6253   0.426   4.167   4.984
 1382ETH      O 6254   0.347   4.084   4.902
 1382ETH      H 6255   0.608   4.128   4.873
 1382ETH     H1 6256   0.612   4.278   4.969
 1382ETH     H2 6257   0.519   4.270   4.817
 1382ETH     H3 6258   0.457   4.110   5.071
 1382ETH     H4 6259   0.367   4.252   5.016
 1382ETH     H5 6260   0.319   4.137   4.824
 1383ETH      C 6261   1.916   3.952   5.027
 1383ETH     C1 6262   2.026   3.965   5.133
 1383ETH      O 6263   2.049   4.102   5.162
 1383ETH      H 6264   1.824   3.999   5.063
 1383ETH     H1 6265   1.897   3.847   5.005
 1383ETH     H2 6266   1.946   4.004   4.936
 1383ETH     H3 6267   1.995   3.915   5.225
 1383ETH     H4 6268   2.118   3.920   5.098
 1383ETH     H5 6269   2.077   4.145   5.079
 1384ETH      C 6270   1.793   5.137   0.832
 1384ETH     C1 6271   1.935   5.103   0.790
 1384ETH      O 6272   2.028   5.163   0.878
 1384ETH      H 6273   1.775   5.101   0.935
 1384ETH     H1 6274   1.720   5.091   0.765
 1384ETH     H2 6275   1.778   5.245   0.833
 1384ETH     H3 6276   1.950   4.996   0.791
 1384ETH     H4 6277   1.954   5.139   0.688
 1384ETH     H5 6278   2.014   5.260   0.875
 1385ETH      C 6279   3.695   1.871   5.306
 1385ETH     C1 6280   3.646   1.870   5.161
 1385ETH      O 6281   3.531   1.789   5.150
 1385ETH      H 6282   3.616   1.910   5.371
 1385ETH     H1 6283   3.784   1.934   5.316
 1385ETH     H2 6284   3.719   1.770   5.339
 1385ETH     H3 6285   3.621   1.971   5.129
 1385ETH     H4 6286   3.724   1.831   5.095
 1385ETH     H5 6287   3.555   1.699   5.178
 1386ETH      C 6288   2.045   2.308   5.579
 1386ETH     C1 6289   1.935   2.205   5.556
 1386ETH      O 6290   1.822   2.267   5.497
 1386ETH      H 6291   2.073   2.355   5.484
 1386ETH     H1 6292   2.133   2.262   5.623
 1386ETH     H2 6293   2.009   2.388   5.645
 1386ETH     H3 6294   1.970   2.127   5.488
 1386ETH     H4 6295   1.906   2.159   5.650
 1386ETH     H5 6296   1.791   2.335   5.560
 1387ETH      C 6297   2.984   4.923   1.886
 1387ETH     C1 6298   2.853   4.917   1.965
 1387ETH      O 6299   2.816   4.783   1.986
 1387ETH      H 6300   3.063   4.870   1.941
 1387ETH     H1 6301   3.014   5.027   1.870
 1387ETH     H2 6302   2.972   4.874   1.790
 1387ETH     H3 6303   2.866   4.965   2.062
 1387ETH     H4 6304   2.774   4.969   1.911
 1387ETH     H5 6305   2.803   4.741   1.898
 1388ETH      C 6306   2.550   2.084   1.068
 1388ETH     C1 6307   2.410   2.087   1.007
 1388ETH      O 6308   2.319   2.021   1.092
 1388ETH      H 6309   2.549   2.132   1.166
 1388ETH     H1 6310   2.621   2.136   1.004
 1388ETH     H2 6311   2.583   1.981   1.082
 1388ETH     H3 6312   2.377   2.190   0.995
 1388ETH     H4 6313   2.410   2.039   0.909
 1388ETH     H5 6314   2.349   1.928   1.101
 1389ETH      C 6315   3.429   3.519   3.839
 1389ETH     C1 6316   3.331   3.635   3.832
 1389ETH      O 6317   3.204   3.594   3.878
 1389ETH      H 6318   3.437   3.482   3.942
 1389ETH     H1 6319   3.529   3.550   3.805
 1389ETH     H2 6320   3.395   3.437   3.777
 1389ETH     H3 6321   3.366   3.717   3.896
 1389ETH     H4 6322   3.323   3.673   3.730
 1389ETH     H5 6323   3.174   3.522   3.819
 1390ETH      C 6324   3.538   4.585   5.172
 1390ETH     C1 6325   3.554   4.709   5.087
 1390ETH      O 6326   3.647   4.685   4.982
 1390ETH      H 6327   3.503   4.501   5.110
 1390ETH     H1 6328   3.466   4.602   5.252
 1390ETH     H2 6329   3.633   4.555   5.215
 1390ETH     H3 6330   3.459   4.737   5.042
 1390ETH     H4 6331   3.590   4.793   5.147
 1390ETH     H5 6332   3.732   4.661   5.024
 1391ETH      C 6333   0.441   4.343   0.214
 1391ETH     C1 6334   0.399   4.435   0.328
 1391ETH      O 6335   0.511   4.473   0.404
 1391ETH      H 6336   0.514   4.394   0.150
 1391ETH     H1 6337   0.355   4.313   0.154
 1391ETH     H2 6338   0.490   4.253   0.254
 1391ETH     H3 6339   0.352   4.525   0.288
 1391ETH     H4 6340   0.327   4.384   0.393
 1391ETH     H5 6341   0.551   4.391   0.441
 1392ETH      C 6342   2.757   2.336   5.118
 1392ETH     C1 6343   2.750   2.470   5.190
 1392ETH      O 6344   2.747   2.576   5.096
 1392ETH      H 6345   2.670   2.325   5.052
 1392ETH     H1 6346   2.758   2.254   5.190
 1392ETH     H2 6347   2.847   2.331   5.056
 1392ETH     H3 6348   2.659   2.476   5.250
 1392ETH     H4 6349   2.836   2.483   5.256
 1392ETH     H5 6350   2.830   2.570   5.043
 1393ETH      C 6351   1.163   1.307   5.518
 1393ETH     C1 6352   1.158   1.162   5.472
 1393ETH      O 6353   1.228   1.079   5.563
 1393ETH      H 6354   1.119   1.316   5.619
 1393ETH     H1 6355   1.108   1.371   5.449
 1393ETH     H2 6356   1.266   1.341   5.525
 1393ETH     H3 6357   1.054   1.127   5.467
 1393ETH     H4 6358   1.202   1.152   5.373
 1393ETH     H5 6359   1.321   1.110   5.565
 1394ETH      C 6360   1.351   3.777   1.163
 1394ETH     C1 6361   1.207   3.786   1.115
 1394ETH      O 6362   1.200   3.757   0.976
 1394ETH      H 6363   1.391   3.677   1.144
 1394ETH     H1 6364   1.357   3.798   1.270
 1394ETH     H2 6365   1.414   3.848   1.109
 1394ETH     H3 6366   1.145   3.714   1.168
 1394ETH     H4 6367   1.167   3.886   1.132
 1394ETH     H5 6368   1.256   3.824   0.930
 1395ETH      C 6369   4.675   3.642   2.186
 1395ETH     C1 6370   4.668   3.496   2.226
 1395ETH      O 6371   4.762   3.469   2.329
 1395ETH      H 6372   4.655   3.706   2.273
 1395ETH     H1 6373   4.602   3.664   2.107
 1395ETH     H2 6374   4.775   3.667   2.150
 1395ETH     H3 6375   4.569   3.472   2.264
 1395ETH     H4 6376   4.689   3.431   2.141
 1395ETH     H5 6377   4.851   3.490   2.293
 1396ETH      C 6378   3.062   1.038   3.012
 1396ETH     C1 6379   2.943   1.050   2.917
 1396ETH      O 6380   2.908   1.186   2.901
 1396ETH      H 6381   3.147   1.094   2.973
 1396ETH     H1 6382   3.090   0.933   3.024
 1396ETH     H2 6383   3.037   1.080   3.109
 1396ETH     H3 6384   2.970   1.010   2.819
 1396ETH     H4 6385   2.857   0.995   2.955
 1396ETH     H5 6386   2.884   1.221   2.989
 1397ETH      C 6387   1.494   4.452   1.725
 1397ETH     C1 6388   1.570   4.412   1.850
 1397ETH      O 6389   1.633   4.525   1.907
 1397ETH      H 6390   1.418   4.528   1.749
 1397ETH     H1 6391   1.443   4.365   1.681
 1397ETH     H2 6392   1.561   4.495   1.651
 1397ETH     H3 6393   1.502   4.371   1.925
 1397ETH     H4 6394   1.645   4.337   1.827
 1397ETH     H5 6395   1.695   4.561   1.839
 1398ETH      C 6396   3.909   4.292   4.537
 1398ETH     C1 6397   4.056   4.256   4.551
 1398ETH      O 6398   4.092   4.161   4.453
 1398ETH      H 6399   3.890   4.333   4.437
 1398ETH     H1 6400   3.881   4.367   4.612
 1398ETH     H2 6401   3.847   4.204   4.549
 1398ETH     H3 6402   4.118   4.345   4.538
 1398ETH     H4 6403   4.076   4.215   4.651
 1398ETH     H5 6404   4.037   4.082   4.468
 1399ETH      C 6405   1.108   2.866   2.772
 1399ETH     C1 6406   0.964   2.830   2.740
 1399ETH      O 6407   0.926   2.715   2.812
 1399ETH      H 6408   1.119   2.885   2.879
 1399ETH     H1 6409   1.139   2.956   2.716
 1399ETH     H2 6410   1.175   2.784   2.746
 1399ETH     H3 6411   0.897   2.911   2.767
 1399ETH     H4 6412   0.953   2.810   2.633
 1399ETH     H5 6413   0.986   2.642   2.786
 1400ETH      C 6414   1.158   2.219   2.688
 1400ETH     C1 6415   1.232   2.320   2.775
 1400ETH      O 6416   1.148   2.431   2.803
 1400ETH      H 6417   1.067   2.185   2.740
 1400ETH     H1 6418   1.221   2.133   2.667
 1400ETH     H2 6419   1.126   2.265   2.594
 1400ETH     H3 6420   1.261   2.275   2.869
 1400ETH     H4 6421   1.321   2.356   2.724
 1400ETH     H5 6422   1.123   2.471   2.717
 1401ETH      C 6423   1.342   3.420   2.932
 1401ETH     C1 6424   1.289   3.557   2.971
 1401ETH      O 6425   1.326   3.653   2.874
 1401ETH      H 6426   1.302   3.391   2.834
 1401ETH     H1 6427   1.313   3.345   3.006
 1401ETH     H2 6428   1.451   3.422   2.924
 1401ETH     H3 6429   1.180   3.555   2.977
 1401ETH     H4 6430   1.328   3.588   3.068
 1401ETH     H5 6431   1.424   3.655   2.871
 1402ETH      C 6432   3.280   1.412   1.936
 1402ETH     C1 6433   3.228   1.297   2.021
 1402ETH      O 6434   3.087   1.298   2.023
 1402ETH      H 6435   3.241   1.403   1.834
 1402ETH     H1 6436   3.389   1.412   1.933
 1402ETH     H2 6437   3.246   1.507   1.976
 1402ETH     H3 6438   3.261   1.202   1.980
 1402ETH     H4 6439   3.266   1.305   2.123
 1402ETH     H5 6440   3.059   1.383   2.062
 1403ETH      C 6441   2.196   4.395   5.371
 1403ETH     C1 6442   2.193   4.458   5.510
 1403ETH      O 6443   2.162   4.595   5.501
 1403ETH      H 6444   2.098   4.409   5.322
 1403ETH     H1 6445   2.218   4.288   5.377
 1403ETH     H2 6446   2.270   4.444   5.309
 1403ETH     H3 6447   2.117   4.410   5.572
 1403ETH     H4 6448   2.290   4.446   5.559
 1403ETH     H5 6449   2.232   4.638   5.447
 1404ETH      C 6450   1.412   1.321   2.827
 1404ETH     C1 6451   1.530   1.413   2.800
 1404ETH      O 6452   1.621   1.410   2.908
 1404ETH      H 6453   1.447   1.218   2.844
 1404ETH     H1 6454   1.342   1.321   2.743
 1404ETH     H2 6455   1.360   1.352   2.918
 1404ETH     H3 6456   1.583   1.380   2.710
 1404ETH     H4 6457   1.496   1.515   2.784
 1404ETH     H5 6458   1.572   1.441   2.987
 1405ETH      C 6459   2.132   3.301   0.248
 1405ETH     C1 6460   2.154   3.426   0.332
 1405ETH      O 6461   2.099   3.538   0.268
 1405ETH      H 6462   2.025   3.285   0.231
 1405ETH     H1 6463   2.174   3.213   0.297
 1405ETH     H2 6464   2.180   3.312   0.150
 1405ETH     H3 6465   2.105   3.414   0.429
 1405ETH     H4 6466   2.261   3.442   0.349
 1405ETH     H5 6467   2.144   3.548   0.181
 1406ETH      C 6468   1.551   3.192   3.175
 1406ETH     C1 6469   1.658   3.101   3.119
 1406ETH      O 6470   1.783   3.168   3.115
 1406ETH      H 6471   1.579   3.225   3.277
 1406ETH     H1 6472   1.455   3.141   3.180
 1406ETH     H2 6473   1.541   3.282   3.114
 1406ETH     H3 6474   1.669   3.012   3.181
 1406ETH     H4 6475   1.632   3.069   3.018
 1406ETH     H5 6476   1.772   3.247   3.057
 1407ETH      C 6477   0.771   3.287   0.822
 1407ETH     C1 6478   0.734   3.358   0.693
 1407ETH      O 6479   0.694   3.264   0.595
 1407ETH      H 6480   0.686   3.228   0.859
 1407ETH     H1 6481   0.801   3.359   0.899
 1407ETH     H2 6482   0.853   3.217   0.805
 1407ETH     H3 6483   0.650   3.426   0.711
 1407ETH     H4 6484   0.818   3.415   0.655
 1407ETH     H5 6485   0.770   3.204   0.580
 1408ETH      C 6486   3.484   1.092   5.215
 1408ETH     C1 6487   3.622   1.084   5.279
 1408ETH      O 6488   3.718   1.047   5.183
 1408ETH      H 6489   3.485   1.165   5.133
 1408ETH     H1 6490   3.409   1.121   5.289
 1408ETH     H2 6491   3.456   0.996   5.173
 1408ETH     H3 6492   3.650   1.181   5.320
 1408ETH     H4 6493   3.623   1.011   5.360
 1408ETH     H5 6494   3.693   0.959   5.148
 1409ETH      C 6495   1.014   1.493   1.489
 1409ETH     C1 6496   0.945   1.367   1.540
 1409ETH      O 6497   0.970   1.352   1.679
 1409ETH      H 6498   0.977   1.581   1.543
 1409ETH     H1 6499   0.995   1.506   1.382
 1409ETH     H2 6500   1.121   1.488   1.506
 1409ETH     H3 6501   0.838   1.374   1.525
 1409ETH     H4 6502   0.982   1.279   1.488
 1409ETH     H5 6503   1.067   1.345   1.691
 1410ETH      C 6504   4.552   2.744   4.328
 1410ETH     C1 6505   4.493   2.877   4.284
 1410ETH      O 6506   4.424   2.861   4.162
 1410ETH      H 6507   4.473   2.669   4.340
 1410ETH     H1 6508   4.605   2.755   4.423
 1410ETH     H2 6509   4.621   2.706   4.253
 1410ETH     H3 6510   4.423   2.914   4.358
 1410ETH     H4 6511   4.572   2.951   4.271
 1410ETH     H5 6512   4.489   2.829   4.095
 1411ETH      C 6513   2.564   4.934   3.976
 1411ETH     C1 6514   2.689   4.858   4.018
 1411ETH      O 6515   2.715   4.753   3.926
 1411ETH      H 6516   2.577   4.975   3.875
 1411ETH     H1 6517   2.544   5.016   4.046
 1411ETH     H2 6518   2.478   4.867   3.974
 1411ETH     H3 6519   2.775   4.925   4.018
 1411ETH     H4 6520   2.677   4.816   4.117
 1411ETH     H5 6521   2.637   4.693   3.927
 1412ETH      C 6522   3.830   2.338   1.295
 1412ETH     C1 6523   3.703   2.346   1.212
 1412ETH      O 6524   3.668   2.218   1.163
 1412ETH      H 6525   3.815   2.269   1.379
 1412ETH     H1 6526   3.857   2.437   1.333
 1412ETH     H2 6527   3.912   2.299   1.235
 1412ETH     H3 6528   3.620   2.384   1.272
 1412ETH     H4 6529   3.717   2.414   1.127
 1412ETH     H5 6530   3.742   2.187   1.108
 1413ETH      C 6531   4.268   2.904   5.542
 1413ETH     C1 6532   4.215   3.035   5.486
 1413ETH      O 6533   4.236   3.040   5.346
 1413ETH      H 6534   4.216   2.819   5.494
 1413ETH     H1 6535   4.252   2.898   5.650
 1413ETH     H2 6536   4.374   2.893   5.521
 1413ETH     H3 6537   4.109   3.044   5.506
 1413ETH     H4 6538   4.266   3.119   5.533
 1413ETH     H5 6539   4.332   3.033   5.330
 1414ETH      C 6540   4.653   4.769   2.028
 1414ETH     C1 6541   4.694   4.771   2.174
 1414ETH      O 6542   4.813   4.698   2.192
 1414ETH      H 6543   4.732   4.812   1.966
 1414ETH     H1 6544   4.561   4.826   2.012
 1414ETH     H2 6545   4.638   4.667   1.994
 1414ETH     H3 6546   4.710   4.874   2.207
 1414ETH     H4 6547   4.615   4.727   2.236
 1414ETH     H5 6548   4.796   4.606   2.164
 1415ETH      C 6549   5.101   0.486   2.554
 1415ETH     C1 6550   5.153   0.619   2.502
 1415ETH      O 6551   5.117   0.723   2.590
 1415ETH      H 6552   5.142   0.466   2.654
 1415ETH     H1 6553   5.129   0.404   2.487
 1415ETH     H2 6554   4.992   0.489   2.564
 1415ETH     H3 6555   5.262   0.616   2.494
 1415ETH     H4 6556   5.112   0.640   2.403
 1415ETH     H5 6557   5.019   0.725   2.595
 1416ETH      C 6558   4.027   5.544   2.367
 1416ETH     C1 6559   4.138   5.478   2.286
 1416ETH      O 6560   4.109   5.341   2.267
 1416ETH      H 6561   3.931   5.533   2.315
 1416ETH     H1 6562   4.048   5.650   2.381
 1416ETH     H2 6563   4.018   5.495   2.464
 1416ETH     H3 6564   4.146   5.525   2.188
 1416ETH     H4 6565   4.234   5.487   2.337
 1416ETH     H5 6566   4.103   5.299   2.356
 1417ETH      C 6567   3.754   5.350   3.941
 1417ETH     C1 6568   3.744   5.380   4.090
 1417ETH      O 6569   3.856   5.455   4.132
 1417ETH      H 6570   3.760   5.444   3.884
 1417ETH     H1 6571   3.667   5.293   3.907
 1417ETH     H2 6572   3.844   5.293   3.919
 1417ETH     H3 6573   3.655   5.438   4.111
 1417ETH     H4 6574   3.739   5.287   4.147
 1417ETH     H5 6575   3.936   5.401   4.114
 1418ETH      C 6576   1.843   1.637   0.759
 1418ETH     C1 6577   1.914   1.710   0.872
 1418ETH      O 6578   1.896   1.850   0.859
 1418ETH      H 6579   1.736   1.661   0.760
 1418ETH     H1 6580   1.855   1.529   0.769
 1418ETH     H2 6581   1.882   1.669   0.662
 1418ETH     H3 6582   1.873   1.679   0.968
 1418ETH     H4 6583   2.021   1.687   0.871
 1418ETH     H5 6584   1.935   1.876   0.773
 1419ETH      C 6585   4.458   2.017   0.485
 1419ETH     C1 6586   4.547   1.899   0.520
 1419ETH      O 6587   4.527   1.793   0.429
 1419ETH      H 6588   4.479   2.051   0.383
 1419ETH     H1 6589   4.474   2.100   0.554
 1419ETH     H2 6590   4.353   1.988   0.488
 1419ETH     H3 6591   4.652   1.929   0.515
 1419ETH     H4 6592   4.526   1.864   0.621
 1419ETH     H5 6593   4.432   1.767   0.436
 1420ETH      C 6594   5.466   3.672   2.023
 1420ETH     C1 6595   5.392   3.542   1.993
 1420ETH      O 6596   5.405   3.510   1.856
 1420ETH      H 6597   5.572   3.661   1.998
 1420ETH     H1 6598   5.457   3.697   2.129
 1420ETH     H2 6599   5.426   3.754   1.964
 1420ETH     H3 6600   5.433   3.460   2.051
 1420ETH     H4 6601   5.286   3.552   2.017
 1420ETH     H5 6602   5.367   3.584   1.804
 1421ETH      C 6603   3.212   5.538   4.410
 1421ETH     C1 6604   3.170   5.579   4.270
 1421ETH      O 6605   3.048   5.650   4.275
 1421ETH      H 6606   3.223   5.627   4.474
 1421ETH     H1 6607   3.307   5.484   4.408
 1421ETH     H2 6608   3.136   5.474   4.456
 1421ETH     H3 6609   3.245   5.644   4.226
 1421ETH     H4 6610   3.158   5.492   4.206
 1421ETH     H5 6611   2.981   5.590   4.314
 1422ETH      C 6612   2.887   0.443   4.878
 1422ETH     C1 6613   2.765   0.478   4.961
 1422ETH      O 6614   2.791   0.452   5.098
 1422ETH      H 6615   2.974   0.502   4.912
 1422ETH     H1 6616   2.869   0.464   4.772
 1422ETH     H2 6617   2.913   0.338   4.889
 1422ETH     H3 6618   2.741   0.584   4.951
 1422ETH     H4 6619   2.679   0.420   4.929
 1422ETH     H5 6620   2.811   0.356   5.106
 1423ETH      C 6621   3.442   2.864   1.562
 1423ETH     C1 6622   3.291   2.859   1.579
 1423ETH      O 6623   3.240   2.988   1.605
 1423ETH      H 6624   3.468   2.932   1.480
 1423ETH     H1 6625   3.482   2.765   1.541
 1423ETH     H2 6626   3.489   2.904   1.653
 1423ETH     H3 6627   3.244   2.821   1.488
 1423ETH     H4 6628   3.264   2.792   1.661
 1423ETH     H5 6629   3.281   3.020   1.688
 1424ETH      C 6630   0.467   1.545   2.927
 1424ETH     C1 6631   0.496   1.398   2.955
 1424ETH      O 6632   0.507   1.377   3.095
 1424ETH      H 6633   0.375   1.576   2.977
 1424ETH     H1 6634   0.458   1.562   2.820
 1424ETH     H2 6635   0.548   1.608   2.966
 1424ETH     H3 6636   0.414   1.336   2.918
 1424ETH     H4 6637   0.588   1.367   2.907
 1424ETH     H5 6638   0.581   1.432   3.127
 1425ETH      C 6639   3.652   4.195   4.159
 1425ETH     C1 6640   3.504   4.161   4.150
 1425ETH      O 6641   3.441   4.245   4.055
 1425ETH      H 6642   3.700   4.183   4.061
 1425ETH     H1 6643   3.702   4.130   4.231
 1425ETH     H2 6644   3.666   4.299   4.189
 1425ETH     H3 6645   3.491   4.058   4.119
 1425ETH     H4 6646   3.456   4.174   4.247
 1425ETH     H5 6647   3.452   4.337   4.085
 1426ETH      C 6648   1.416   2.488   1.073
 1426ETH     C1 6649   1.319   2.434   0.969
 1426ETH      O 6650   1.328   2.293   0.962
 1426ETH      H 6651   1.394   2.444   1.171
 1426ETH     H1 6652   1.409   2.596   1.081
 1426ETH     H2 6653   1.518   2.460   1.047
 1426ETH     H3 6654   1.217   2.460   0.996
 1426ETH     H4 6655   1.341   2.477   0.871
 1426ETH     H5 6656   1.420   2.271   0.936
 1427ETH      C 6657   2.520   4.946   2.269
 1427ETH     C1 6658   2.634   5.046   2.256
 1427ETH      O 6659   2.758   4.979   2.260
 1427ETH      H 6660   2.525   4.873   2.187
 1427ETH     H1 6661   2.423   4.997   2.264
 1427ETH     H2 6662   2.527   4.891   2.362
 1427ETH     H3 6663   2.627   5.100   2.162
 1427ETH     H4 6664   2.630   5.119   2.338
 1427ETH     H5 6665   2.763   4.933   2.347
 1428ETH      C 6666   3.677   2.146   4.481
 1428ETH     C1 6667   3.799   2.099   4.405
 1428ETH      O 6668   3.798   2.152   4.274
 1428ETH      H 6669   3.675   2.255   4.486
 1428ETH     H1 6670   3.677   2.106   4.583
 1428ETH     H2 6671   3.585   2.114   4.431
 1428ETH     H3 6672   3.890   2.132   4.454
 1428ETH     H4 6673   3.801   1.990   4.399
 1428ETH     H5 6674   3.717   2.120   4.229
 1429ETH      C 6675   2.156   5.106   2.229
 1429ETH     C1 6676   2.065   5.203   2.156
 1429ETH      O 6677   1.933   5.154   2.152
 1429ETH      H 6678   2.119   5.090   2.332
 1429ETH     H1 6679   2.259   5.144   2.234
 1429ETH     H2 6680   2.156   5.009   2.179
 1429ETH     H3 6681   2.064   5.299   2.208
 1429ETH     H4 6682   2.101   5.219   2.054
 1429ETH     H5 6683   1.935   5.068   2.105
 1430ETH      C 6684   4.074   4.615   2.126
 1430ETH     C1 6685   3.939   4.606   2.056
 1430ETH      O 6686   3.942   4.504   1.958
 1430ETH      H 6687   4.099   4.519   2.173
 1430ETH     H1 6688   4.072   4.693   2.203
 1430ETH     H2 6689   4.152   4.638   2.054
 1430ETH     H3 6690   3.861   4.581   2.129
 1430ETH     H4 6691   3.913   4.700   2.009
 1430ETH     H5 6692   4.011   4.528   1.893
 1431ETH      C 6693   3.624   1.533   1.733
 1431ETH     C1 6694   3.748   1.617   1.761
 1431ETH      O 6695   3.850   1.585   1.668
 1431ETH      H 6696   3.589   1.551   1.631
 1431ETH     H1 6697   3.544   1.557   1.803
 1431ETH     H2 6698   3.648   1.427   1.741
 1431ETH     H3 6699   3.725   1.723   1.751
 1431ETH     H4 6700   3.784   1.599   1.862
 1431ETH     H5 6701   3.871   1.490   1.679
 1432ETH      C 6702   4.952   4.530   2.623
 1432ETH     C1 6703   5.064   4.488   2.528
 1432ETH      O 6704   5.167   4.585   2.529
 1432ETH      H 6705   4.992   4.542   2.724
 1432ETH     H1 6706   4.872   4.456   2.624
 1432ETH     H2 6707   4.911   4.627   2.592
 1432ETH     H3 6708   5.106   4.393   2.560
 1432ETH     H4 6709   5.026   4.477   2.426
 1432ETH     H5 6710   5.128   4.669   2.499
 1433ETH      C 6711   3.102   2.379   5.058
 1433ETH     C1 6712   3.146   2.245   5.115
 1433ETH      O 6713   3.208   2.263   5.240
 1433ETH      H 6714   3.032   2.428   5.128
 1433ETH     H1 6715   3.052   2.366   4.962
 1433ETH     H2 6716   3.187   2.446   5.046
 1433ETH     H3 6717   3.060   2.180   5.128
 1433ETH     H4 6718   3.216   2.196   5.046
 1433ETH     H5 6719   3.286   2.321   5.226
 1434ETH      C 6720   0.800   3.133   5.251
 1434ETH     C1 6721   0.694   3.218   5.318
 1434ETH      O 6722   0.605   3.270   5.221
 1434ETH      H 6723   0.753   3.050   5.196
 1434ETH     H1 6724   0.869   3.091   5.325
 1434ETH     H2 6725   0.857   3.192   5.179
 1434ETH     H3 6726   0.636   3.159   5.389
 1434ETH     H4 6727   0.740   3.301   5.372
 1434ETH     H5 6728   0.658   3.324   5.159
 1435ETH      C 6729   3.497   1.644   2.522
 1435ETH     C1 6730   3.483   1.787   2.571
 1435ETH      O 6731   3.527   1.877   2.471
 1435ETH      H 6732   3.438   1.629   2.431
 1435ETH     H1 6733   3.462   1.574   2.599
 1435ETH     H2 6734   3.601   1.622   2.498
 1435ETH     H3 6735   3.378   1.810   2.593
 1435ETH     H4 6736   3.541   1.803   2.661
 1435ETH     H5 6737   3.621   1.857   2.453
 1436ETH      C 6738   4.120   0.779   2.503
 1436ETH     C1 6739   3.983   0.773   2.438
 1436ETH      O 6740   3.882   0.807   2.531
 1436ETH      H 6741   4.138   0.880   2.543
 1436ETH     H1 6742   4.198   0.754   2.432
 1436ETH     H2 6743   4.125   0.710   2.588
 1436ETH     H3 6744   3.978   0.843   2.355
 1436ETH     H4 6745   3.963   0.673   2.399
 1436ETH     H5 6746   3.887   0.742   2.605
 1437ETH      C 6747   4.838   1.142   5.555
 1437ETH     C1 6748   4.754   1.265   5.525
 1437ETH      O 6749   4.661   1.287   5.629
 1437ETH      H 6750   4.891   1.155   5.650
 1437ETH     H1 6751   4.912   1.125   5.475
 1437ETH     H2 6752   4.775   1.054   5.564
 1437ETH     H3 6753   4.818   1.353   5.517
 1437ETH     H4 6754   4.701   1.253   5.431
 1437ETH     H5 6755   4.604   1.207   5.633
 1438ETH      C 6756   4.917   3.552   1.376
 1438ETH     C1 6757   5.066   3.523   1.378
 1438ETH      O 6758   5.090   3.388   1.347
 1438ETH      H 6759   4.875   3.528   1.277
 1438ETH     H1 6760   4.897   3.657   1.399
 1438ETH     H2 6761   4.865   3.489   1.449
 1438ETH     H3 6762   5.117   3.585   1.303
 1438ETH     H4 6763   5.109   3.546   1.476
 1438ETH     H5 6764   5.045   3.334   1.415
 1439ETH      C 6765   3.796   5.581   2.065
 1439ETH     C1 6766   3.680   5.556   2.160
 1439ETH      O 6767   3.720   5.468   2.264
 1439ETH      H 6768   3.881   5.624   2.120
 1439ETH     H1 6769   3.767   5.650   1.986
 1439ETH     H2 6770   3.830   5.487   2.021
 1439ETH     H3 6771   3.648   5.650   2.206
 1439ETH     H4 6772   3.595   5.513   2.107
 1439ETH     H5 6773   3.747   5.384   2.221
 1440ETH      C 6774   3.413   3.953   5.293
 1440ETH     C1 6775   3.522   3.848   5.304
 1440ETH      O 6776   3.465   3.718   5.303
 1440ETH      H 6777   3.356   3.939   5.200
 1440ETH     H1 6778   3.457   4.054   5.292
 1440ETH     H2 6779   3.343   3.945   5.376
 1440ETH     H3 6780   3.591   3.855   5.219
 1440ETH     H4 6781   3.579   3.861   5.396
 1440ETH     H5 6782   3.405   3.712   5.380
 1441ETH      C 6783   1.505   5.163   1.002
 1441ETH     C1 6784   1.525   5.173   1.153
 1441ETH      O 6785   1.452   5.071   1.218
 1441ETH      H 6786   1.538   5.065   0.966
 1441ETH     H1 6787   1.562   5.241   0.950
 1441ETH     H2 6788   1.399   5.174   0.977
 1441ETH     H3 6789   1.630   5.161   1.177
 1441ETH     H4 6790   1.491   5.270   1.190
 1441ETH     H5 6791   1.357   5.084   1.196
 1442ETH      C 6792   1.890   1.084   4.544
 1442ETH     C1 6793   2.024   1.038   4.489
 1442ETH      O 6794   2.016   0.903   4.447
 1442ETH      H 6795   1.812   1.073   4.467
 1442ETH     H1 6796   1.894   1.188   4.575
 1442ETH     H2 6797   1.860   1.022   4.629
 1442ETH     H3 6798   2.052   1.099   4.403
 1442ETH     H4 6799   2.102   1.048   4.565
 1442ETH     H5 6800   1.993   0.850   4.526
 1443ETH      C 6801   4.323   5.049   0.919
 1443ETH     C1 6802   4.313   4.935   0.819
 1443ETH      O 6803   4.345   4.981   0.689
 1443ETH      H 6804   4.425   5.090   0.918
 1443ETH     H1 6805   4.300   5.014   1.020
 1443ETH     H2 6806   4.255   5.129   0.893
 1443ETH     H3 6807   4.383   4.855   0.845
 1443ETH     H4 6808   4.212   4.893   0.819
 1443ETH     H5 6809   4.280   5.051   0.667
 1444ETH      C 6810   2.776   2.721   0.858
 1444ETH     C1 6811   2.784   2.760   0.711
 1444ETH      O 6812   2.833   2.892   0.698
 1444ETH      H 6813   2.875   2.729   0.904
 1444ETH     H1 6814   2.739   2.619   0.869
 1444ETH     H2 6815   2.710   2.789   0.912
 1444ETH     H3 6816   2.851   2.693   0.658
 1444ETH     H4 6817   2.685   2.754   0.664
 1444ETH     H5 6818   2.771   2.951   0.745
 1445ETH      C 6819   2.707   1.626   3.995
 1445ETH     C1 6820   2.810   1.688   3.902
 1445ETH      O 6821   2.919   1.737   3.977
 1445ETH      H 6822   2.752   1.544   4.052
 1445ETH     H1 6823   2.622   1.586   3.938
 1445ETH     H2 6824   2.671   1.699   4.066
 1445ETH     H3 6825   2.847   1.614   3.832
 1445ETH     H4 6826   2.766   1.770   3.845
 1445ETH     H5 6827   2.885   1.805   4.038
 1446ETH      C 6828   3.765   3.507   2.750
 1446ETH     C1 6829   3.621   3.544   2.786
 1446ETH      O 6830   3.532   3.449   2.731
 1446ETH      H 6831   3.789   3.407   2.789
 1446ETH     H1 6832   3.834   3.580   2.793
 1446ETH     H2 6833   3.777   3.505   2.642
 1446ETH     H3 6834   3.608   3.544   2.894
 1446ETH     H4 6835   3.596   3.643   2.747
 1446ETH     H5 6836   3.544   3.450   2.634
 1447ETH      C 6837   1.644   0.814   5.265
 1447ETH     C1 6838   1.734   0.887   5.167
 1447ETH      O 6839   1.671   0.898   5.041
 1447ETH      H 6840   1.549   0.868   5.276
 1447ETH     H1 6841   1.691   0.806   5.363
 1447ETH     H2 6842   1.620   0.714   5.228
 1447ETH     H3 6843   1.756   0.987   5.203
 1447ETH     H4 6844   1.829   0.833   5.155
 1447ETH     H5 6845   1.653   0.807   5.009
 1448ETH      C 6846   3.766   2.900   5.385
 1448ETH     C1 6847   3.914   2.931   5.367
 1448ETH      O 6848   3.957   2.888   5.239
 1448ETH      H 6849   3.708   2.951   5.308
 1448ETH     H1 6850   3.732   2.933   5.484
 1448ETH     H2 6851   3.748   2.793   5.376
 1448ETH     H3 6852   3.932   3.038   5.375
 1448ETH     H4 6853   3.974   2.880   5.443
 1448ETH     H5 6854   3.942   2.792   5.234
 1449ETH      C 6855   1.616   5.360   1.907
 1449ETH     C1 6856   1.660   5.493   1.848
 1449ETH      O 6857   1.615   5.600   1.929
 1449ETH      H 6858   1.655   5.349   2.009
 1449ETH     H1 6859   1.651   5.277   1.846
 1449ETH     H2 6860   1.507   5.356   1.914
 1449ETH     H3 6861   1.769   5.498   1.843
 1449ETH     H4 6862   1.620   5.505   1.747
 1449ETH     H5 6863   1.517   5.595   1.931
 1450ETH      C 6864   0.814   1.886   5.514
 1450ETH     C1 6865   0.852   2.020   5.453
 1450ETH      O 6866   0.948   2.001   5.351
 1450ETH      H 6867   0.773   1.819   5.437
 1450ETH     H1 6868   0.739   1.900   5.593
 1450ETH     H2 6869   0.902   1.837   5.557
 1450ETH     H3 6870   0.765   2.068   5.409
 1450ETH     H4 6871   0.893   2.087   5.529
 1450ETH     H5 6872   1.027   1.959   5.392
 1451ETH      C 6873   1.085   3.919   3.976
 1451ETH     C1 6874   1.237   3.918   3.978
 1451ETH      O 6875   1.286   3.791   3.941
 1451ETH      H 6876   1.048   3.892   3.876
 1451ETH     H1 6877   1.046   4.017   4.003
 1451ETH     H2 6878   1.046   3.844   4.046
 1451ETH     H3 6879   1.276   3.991   3.907
 1451ETH     H4 6880   1.274   3.944   4.077
 1451ETH     H5 6881   1.252   3.726   4.007
 1452ETH      C 6882   0.478   2.818   1.171
 1452ETH     C1 6883   0.529   2.897   1.051
 1452ETH      O 6884   0.623   2.994   1.092
 1452ETH      H 6885   0.562   2.769   1.222
 1452ETH     H1 6886   0.406   2.742   1.139
 1452ETH     H2 6887   0.431   2.885   1.242
 1452ETH     H3 6888   0.579   2.830   0.980
 1452ETH     H4 6889   0.447   2.946   0.999
 1452ETH     H5 6890   0.577   3.054   1.154
 1453ETH      C 6891   5.414   1.152   2.990
 1453ETH     C1 6892   5.272   1.098   2.996
 1453ETH      O 6893   5.243   1.049   3.125
 1453ETH      H 6894   5.427   1.232   3.064
 1453ETH     H1 6895   5.437   1.191   2.891
 1453ETH     H2 6896   5.485   1.073   3.015
 1453ETH     H3 6897   5.200   1.177   2.973
 1453ETH     H4 6898   5.258   1.018   2.923
 1453ETH     H5 6899   5.306   0.977   3.144
 1454ETH      C 6900   0.305   4.225   2.645
 1454ETH     C1 6901   0.441   4.290   2.668
 1454ETH      O 6902   0.540   4.224   2.591
 1454ETH      H 6903   0.279   4.230   2.538
 1454ETH     H1 6904   0.228   4.276   2.703
 1454ETH     H2 6905   0.308   4.120   2.673
 1454ETH     H3 6906   0.439   4.395   2.638
 1454ETH     H4 6907   0.468   4.285   2.773
 1454ETH     H5 6908   0.542   4.130   2.620
 1455ETH      C 6909   5.308   2.472   2.081
 1455ETH     C1 6910   5.302   2.324   2.116
 1455ETH      O 6911   5.392   2.295   2.221
 1455ETH      H 6912   5.283   2.532   2.169
 1455ETH     H1 6913   5.238   2.495   2.000
 1455ETH     H2 6914   5.409   2.500   2.050
 1455ETH     H3 6915   5.202   2.297   2.148
 1455ETH     H4 6916   5.329   2.263   2.029
 1455ETH     H5 6917   5.482   2.319   2.191
 1456ETH      C 6918   2.104   4.230   1.616
 1456ETH     C1 6919   2.033   4.096   1.624
 1456ETH      O 6920   2.091   4.005   1.533
 1456ETH      H 6921   2.211   4.218   1.640
 1456ETH     H1 6922   2.061   4.301   1.687
 1456ETH     H2 6923   2.098   4.271   1.516
 1456ETH     H3 6924   2.041   4.055   1.724
 1456ETH     H4 6925   1.927   4.108   1.600
 1456ETH     H5 6926   2.082   4.043   1.443
 1457ETH      C 6927   1.370   4.066   0.322
 1457ETH     C1 6928   1.368   3.920   0.365
 1457ETH      O 6929   1.251   3.857   0.318
 1457ETH      H 6930   1.365   4.073   0.213
 1457ETH     H1 6931   1.461   4.116   0.357
 1457ETH     H2 6932   1.283   4.119   0.361
 1457ETH     H3 6933   1.454   3.868   0.325
 1457ETH     H4 6934   1.372   3.913   0.474
 1457ETH     H5 6935   1.174   3.904   0.357
 1458ETH      C 6936   2.932   1.235   1.178
 1458ETH     C1 6937   2.788   1.287   1.179
 1458ETH      O 6938   2.788   1.428   1.191
 1458ETH      H 6939   2.987   1.280   1.094
 1458ETH     H1 6940   2.933   1.126   1.167
 1458ETH     H2 6941   2.983   1.263   1.270
 1458ETH     H3 6942   2.738   1.260   1.086
 1458ETH     H4 6943   2.733   1.243   1.262
 1458ETH     H5 6944   2.832   1.450   1.275
 1459ETH      C 6945   5.273   3.029   0.284
 1459ETH     C1 6946   5.179   2.918   0.331
 1459ETH      O 6947   5.074   2.901   0.238
 1459ETH      H 6948   5.314   3.004   0.185
 1459ETH     H1 6949   5.356   3.041   0.354
 1459ETH     H2 6950   5.219   3.123   0.275
 1459ETH     H3 6951   5.233   2.824   0.338
 1459ETH     H4 6952   5.138   2.942   0.428
 1459ETH     H5 6953   5.025   2.986   0.233
 1460ETH      C 6954   1.319   0.385   1.756
 1460ETH     C1 6955   1.340   0.530   1.796
 1460ETH      O 6956   1.426   0.594   1.703
 1460ETH      H 6957   1.275   0.380   1.656
 1460ETH     H1 6958   1.252   0.335   1.827
 1460ETH     H2 6959   1.414   0.332   1.753
 1460ETH     H3 6960   1.245   0.583   1.798
 1460ETH     H4 6961   1.385   0.536   1.896
 1460ETH     H5 6962   1.511   0.546   1.704
 1461ETH      C 6963   4.662   0.692   3.976
 1461ETH     C1 6964   4.512   0.693   3.945
 1461ETH      O 6965   4.458   0.820   3.973
 1461ETH      H 6966   4.713   0.768   3.916
 1461ETH     H1 6967   4.705   0.593   3.954
 1461ETH     H2 6968   4.679   0.716   4.081
 1461ETH     H3 6969   4.495   0.670   3.840
 1461ETH     H4 6970   4.460   0.618   4.005
 1461ETH     H5 6971   4.473   0.839   4.068
 1462ETH      C 6972   0.808   1.903   0.245
 1462ETH     C1 6973   0.706   1.791   0.257
 1462ETH      O 6974   0.614   1.797   0.150
 1462ETH      H 6975   0.862   1.896   0.150
 1462ETH     H1 6976   0.880   1.899   0.327
 1462ETH     H2 6977   0.758   2.000   0.247
 1462ETH     H3 6978   0.757   1.694   0.254
 1462ETH     H4 6979   0.652   1.798   0.352
 1462ETH     H5 6980   0.569   1.884   0.155
 1463ETH      C 6981   2.258   4.126   4.528
 1463ETH     C1 6982   2.270   4.029   4.411
 1463ETH      O 6983   2.391   3.957   4.420
 1463ETH      H 6984   2.262   4.071   4.623
 1463ETH     H1 6985   2.164   4.182   4.523
 1463ETH     H2 6986   2.341   4.197   4.528
 1463ETH     H3 6987   2.187   3.958   4.413
 1463ETH     H4 6988   2.267   4.083   4.316
 1463ETH     H5 6989   2.464   4.022   4.417
 1464ETH      C 6990   2.408   3.930   3.689
 1464ETH     C1 6991   2.380   3.786   3.649
 1464ETH      O 6992   2.332   3.713   3.761
 1464ETH      H 6993   2.316   3.977   3.728
 1464ETH     H1 6994   2.444   3.987   3.603
 1464ETH     H2 6995   2.482   3.934   3.769
 1464ETH     H3 6996   2.304   3.782   3.571
 1464ETH     H4 6997   2.471   3.738   3.612
 1464ETH     H5 6998   2.401   3.716   3.830
 1465ETH      C 6999   4.958   2.824   3.301
 1465ETH     C1 7000   4.987   2.819   3.152
 1465ETH      O 7001   4.913   2.714   3.091
 1465ETH      H 7002   4.850   2.839   3.318
 1465ETH     H1 7003   5.013   2.906   3.348
 1465ETH     H2 7004   4.985   2.730   3.349
 1465ETH     H3 7005   4.957   2.913   3.104
 1465ETH     H4 7006   5.093   2.803   3.134
 1465ETH     H5 7007   4.942   2.630   3.134
 1466ETH      C 7008   3.493   3.532   1.580
 1466ETH     C1 7009   3.633   3.553   1.523
 1466ETH      O 7010   3.628   3.552   1.382
 1466ETH      H 7011   3.426   3.611   1.545
 1466ETH     H1 7012   3.495   3.533   1.689
 1466ETH     H2 7013   3.452   3.437   1.546
 1466ETH     H3 7014   3.673   3.648   1.556
 1466ETH     H4 7015   3.700   3.474   1.557
 1466ETH     H5 7016   3.593   3.465   1.354
 1467ETH      C 7017   3.466   0.674   4.661
 1467ETH     C1 7018   3.577   0.768   4.704
 1467ETH      O 7019   3.553   0.815   4.836
 1467ETH      H 7020   3.461   0.589   4.730
 1467ETH     H1 7021   3.485   0.636   4.560
 1467ETH     H2 7022   3.370   0.724   4.664
 1467ETH     H3 7023   3.673   0.717   4.703
 1467ETH     H4 7024   3.583   0.854   4.637
 1467ETH     H5 7025   3.467   0.862   4.835
 1468ETH      C 7026   3.085   2.957   5.059
 1468ETH     C1 7027   3.035   2.853   5.159
 1468ETH      O 7028   3.011   2.914   5.284
 1468ETH      H 7029   3.011   3.038   5.048
 1468ETH     H1 7030   3.103   2.911   4.962
 1468ETH     H2 7031   3.178   3.002   5.095
 1468ETH     H3 7032   2.941   2.810   5.124
 1468ETH     H4 7033   3.108   2.773   5.171
 1468ETH     H5 7034   3.096   2.952   5.315
 1469ETH      C 7035   2.193   3.518   2.119
 1469ETH     C1 7036   2.198   3.603   1.993
 1469ETH      O 7037   2.067   3.638   1.952
 1469ETH      H 7038   2.143   3.574   2.200
 1469ETH     H1 7039   2.294   3.492   2.152
 1469ETH     H2 7040   2.136   3.427   2.102
 1469ETH     H3 7041   2.254   3.695   2.011
 1469ETH     H4 7042   2.248   3.548   1.912
 1469ETH     H5 7043   2.019   3.554   1.935
 1470ETH      C 7044   2.581   4.267   5.538
 1470ETH     C1 7045   2.733   4.272   5.530
 1470ETH      O 7046   2.774   4.285   5.396
 1470ETH      H 7047   2.538   4.358   5.495
 1470ETH     H1 7048   2.548   4.258   5.642
 1470ETH     H2 7049   2.543   4.182   5.481
 1470ETH     H3 7050   2.770   4.358   5.586
 1470ETH     H4 7051   2.777   4.182   5.573
 1470ETH     H5 7052   2.741   4.207   5.347
 1471ETH      C 7053   3.663   3.177   4.525
 1471ETH     C1 7054   3.575   3.129   4.411
 1471ETH      O 7055   3.439   3.150   4.442
 1471ETH      H 7056   3.646   3.284   4.544
 1471ETH     H1 7057   3.769   3.162   4.501
 1471ETH     H2 7058   3.640   3.123   4.617
 1471ETH     H3 7059   3.598   3.184   4.320
 1471ETH     H4 7060   3.592   3.023   4.392
 1471ETH     H5 7061   3.420   3.099   4.524
 1472ETH      C 7062   2.092   1.691   3.815
 1472ETH     C1 7063   2.164   1.597   3.720
 1472ETH      O 7064   2.201   1.478   3.787
 1472ETH      H 7065   2.003   1.643   3.857
 1472ETH     H1 7066   2.062   1.783   3.764
 1472ETH     H2 7067   2.157   1.717   3.899
 1472ETH     H3 7068   2.098   1.570   3.637
 1472ETH     H4 7069   2.253   1.645   3.679
 1472ETH     H5 7070   2.261   1.504   3.860
 1473ETH      C 7071   5.080   0.247   3.168
 1473ETH     C1 7072   5.168   0.225   3.290
 1473ETH      O 7073   5.099   0.150   3.387
 1473ETH      H 7074   5.050   0.150   3.125
 1473ETH     H1 7075   5.133   0.304   3.091
 1473ETH     H2 7076   4.989   0.300   3.195
 1473ETH     H3 7077   5.258   0.170   3.262
 1473ETH     H4 7078   5.198   0.321   3.333
 1473ETH     H5 7079   5.019   0.201   3.412
 1474ETH      C 7080   1.277   3.389   3.706
 1474ETH     C1 7081   1.327   3.495   3.802
 1474ETH      O 7082   1.423   3.578   3.739
 1474ETH      H 7083   1.233   3.436   3.617
 1474ETH     H1 7084   1.202   3.325   3.753
 1474ETH     H2 7085   1.360   3.327   3.672
 1474ETH     H3 7086   1.244   3.559   3.834
 1474ETH     H4 7087   1.371   3.450   3.890
 1474ETH     H5 7088   1.497   3.520   3.712
 1475ETH      C 7089   4.723   2.702   1.902
 1475ETH     C1 7090   4.631   2.598   1.963
 1475ETH      O 7091   4.496   2.637   1.948
 1475ETH      H 7092   4.700   2.715   1.795
 1475ETH     H1 7093   4.828   2.673   1.912
 1475ETH     H2 7094   4.708   2.799   1.950
 1475ETH     H3 7095   4.645   2.502   1.914
 1475ETH     H4 7096   4.653   2.585   2.069
 1475ETH     H5 7097   4.485   2.723   1.994
 1476ETH      C 7098   5.537   1.020   1.054
 1476ETH     C1 7099   5.425   1.102   0.994
 1476ETH      O 7100   5.311   1.098   1.078
 1476ETH      H 7101   5.563   1.058   1.154
 1476ETH     H1 7102   5.626   1.024   0.990
 1476ETH     H2 7103   5.506   0.916   1.066
 1476ETH     H3 7104   5.455   1.206   0.984
 1476ETH     H4 7105   5.398   1.065   0.895
 1476ETH     H5 7106   5.284   1.004   1.085
 1477ETH      C 7107   5.457   5.152   1.750
 1477ETH     C1 7108   5.453   5.028   1.663
 1477ETH      O 7109   5.431   4.913   1.742
 1477ETH      H 7110   5.362   5.162   1.805
 1477ETH     H1 7111   5.473   5.242   1.690
 1477ETH     H2 7112   5.536   5.144   1.824
 1477ETH     H3 7113   5.372   5.035   1.590
 1477ETH     H4 7114   5.547   5.016   1.608
 1477ETH     H5 7115   5.505   4.907   1.806
 1478ETH      C 7116   5.556   2.388   1.412
 1478ETH     C1 7117   5.585   2.241   1.442
 1478ETH      O 7118   5.649   2.181   1.331
 1478ETH      H 7119   5.650   2.440   1.390
 1478ETH     H1 7120   5.507   2.435   1.498
 1478ETH     H2 7121   5.492   2.397   1.324
 1478ETH     H3 7122   5.650   2.232   1.528
 1478ETH     H4 7123   5.492   2.187   1.462
 1478ETH     H5 7124   5.589   2.188   1.254
 1479ETH      C 7125   1.055   1.966   3.253
 1479ETH     C1 7126   1.095   1.866   3.360
 1479ETH      O 7127   0.980   1.814   3.423
 1479ETH      H 7128   0.990   1.918   3.179
 1479ETH     H1 7129   1.143   2.006   3.203
 1479ETH     H2 7130   0.999   2.049   3.297
 1479ETH     H3 7131   1.149   1.782   3.315
 1479ETH     H4 7132   1.159   1.913   3.435
 1479ETH     H5 7133   0.932   1.889   3.465
 1480ETH      C 7134   2.896   4.358   3.777
 1480ETH     C1 7135   2.811   4.484   3.764
 1480ETH      O 7136   2.689   4.467   3.833
 1480ETH      H 7137   2.916   4.337   3.883
 1480ETH     H1 7138   2.992   4.370   3.725
 1480ETH     H2 7139   2.844   4.272   3.737
 1480ETH     H3 7140   2.864   4.569   3.806
 1480ETH     H4 7141   2.790   4.505   3.659
 1480ETH     H5 7142   2.643   4.391   3.793
 1481ETH      C 7143   4.329   0.564   5.330
 1481ETH     C1 7144   4.353   0.469   5.447
 1481ETH      O 7145   4.277   0.509   5.559
 1481ETH      H 7146   4.223   0.564   5.304
 1481ETH     H1 7147   4.387   0.532   5.243
 1481ETH     H2 7148   4.357   0.665   5.357
 1481ETH     H3 7149   4.324   0.368   5.421
 1481ETH     H4 7150   4.459   0.468   5.475
 1481ETH     H5 7151   4.305   0.600   5.583
 1482ETH      C 7152   2.287   3.062   1.152
 1482ETH     C1 7153   2.205   3.121   1.266
 1482ETH      O 7154   2.246   3.066   1.389
 1482ETH      H 7155   2.394   3.083   1.168
 1482ETH     H1 7156   2.257   3.105   1.056
 1482ETH     H2 7157   2.276   2.954   1.148
 1482ETH     H3 7158   2.218   3.229   1.270
 1482ETH     H4 7159   2.099   3.100   1.251
 1482ETH     H5 7160   2.232   2.969   1.384
 1483ETH      C 7161   4.745   2.235   1.588
 1483ETH     C1 7162   4.780   2.091   1.552
 1483ETH      O 7163   4.815   2.019   1.668
 1483ETH      H 7164   4.661   2.236   1.659
 1483ETH     H1 7165   4.717   2.292   1.499
 1483ETH     H2 7166   4.829   2.284   1.637
 1483ETH     H3 7167   4.695   2.042   1.505
 1483ETH     H4 7168   4.864   2.089   1.482
 1483ETH     H5 7169   4.892   2.063   1.708
 1484ETH      C 7170   1.437   0.897   3.668
 1484ETH     C1 7171   1.360   0.767   3.645
 1484ETH      O 7172   1.400   0.670   3.740
 1484ETH      H 7173   1.419   0.934   3.770
 1484ETH     H1 7174   1.406   0.973   3.597
 1484ETH     H2 7175   1.544   0.880   3.659
 1484ETH     H3 7176   1.253   0.784   3.657
 1484ETH     H4 7177   1.378   0.729   3.545
 1484ETH     H5 7178   1.496   0.654   3.727
 1485ETH      C 7179   0.246   3.983   2.224
 1485ETH     C1 7180   0.331   3.872   2.285
 1485ETH      O 7181   0.353   3.898   2.422
 1485ETH      H 7182   0.150   3.990   2.276
 1485ETH     H1 7183   0.227   3.963   2.118
 1485ETH     H2 7184   0.296   4.079   2.234
 1485ETH     H3 7185   0.279   3.776   2.277
 1485ETH     H4 7186   0.427   3.865   2.234
 1485ETH     H5 7187   0.400   3.984   2.428
 1486ETH      C 7188   5.049   0.832   2.908
 1486ETH     C1 7189   4.908   0.779   2.886
 1486ETH      O 7190   4.834   0.789   3.006
 1486ETH      H 7191   5.046   0.937   2.941
 1486ETH     H1 7192   5.107   0.826   2.815
 1486ETH     H2 7193   5.100   0.775   2.986
 1486ETH     H3 7194   4.857   0.838   2.810
 1486ETH     H4 7195   4.911   0.675   2.855
 1486ETH     H5 7196   4.880   0.736   3.074
 1487ETH      C 7197   0.429   0.574   4.053
 1487ETH     C1 7198   0.546   0.656   4.104
 1487ETH      O 7199   0.582   0.755   4.010
 1487ETH      H 7200   0.343   0.639   4.033
 1487ETH     H1 7201   0.400   0.497   4.126
 1487ETH     H2 7202   0.455   0.525   3.958
 1487ETH     H3 7203   0.519   0.706   4.197
 1487ETH     H4 7204   0.633   0.592   4.123
 1487ETH     H5 7205   0.607   0.709   3.927
 1488ETH      C 7206   0.323   5.582   4.773
 1488ETH     C1 7207   0.407   5.532   4.889
 1488ETH      O 7208   0.521   5.465   4.842
 1488ETH      H 7209   0.383   5.650   4.710
 1488ETH     H1 7210   0.235   5.636   4.809
 1488ETH     H2 7211   0.291   5.499   4.710
 1488ETH     H3 7212   0.439   5.616   4.951
 1488ETH     H4 7213   0.348   5.464   4.952
 1488ETH     H5 7214   0.490   5.389   4.788
 1489ETH      C 7215   5.432   0.826   4.519
 1489ETH     C1 7216   5.473   0.945   4.435
 1489ETH      O 7217   5.551   0.903   4.325
 1489ETH      H 7218   5.374   0.755   4.458
 1489ETH     H1 7219   5.371   0.857   4.604
 1489ETH     H2 7220   5.519   0.772   4.556
 1489ETH     H3 7221   5.385   0.997   4.397
 1489ETH     H4 7222   5.532   1.016   4.495
 1489ETH     H5 7223   5.630   0.857   4.361
 1490ETH      C 7224   5.026   3.801   3.741
 1490ETH     C1 7225   4.887   3.762   3.788
 1490ETH      O 7226   4.880   3.763   3.929
 1490ETH      H 7227   5.051   3.901   3.778
 1490ETH     H1 7228   5.032   3.801   3.632
 1490ETH     H2 7229   5.101   3.732   3.781
 1490ETH     H3 7230   4.813   3.832   3.749
 1490ETH     H4 7231   4.861   3.662   3.752
 1490ETH     H5 7232   4.946   3.699   3.962
 1491ETH      C 7233   2.030   2.826   2.745
 1491ETH     C1 7234   2.136   2.759   2.832
 1491ETH      O 7235   2.222   2.680   2.753
 1491ETH      H 7236   2.079   2.889   2.670
 1491ETH     H1 7237   1.964   2.888   2.806
 1491ETH     H2 7238   1.971   2.751   2.693
 1491ETH     H3 7239   2.196   2.834   2.883
 1491ETH     H4 7240   2.089   2.696   2.908
 1491ETH     H5 7241   2.167   2.612   2.708
 1492ETH      C 7242   1.414   1.527   2.117
 1492ETH     C1 7243   1.381   1.550   1.971
 1492ETH      O 7244   1.255   1.612   1.958
 1492ETH      H 7245   1.414   1.622   2.172
 1492ETH     H1 7246   1.512   1.480   2.128
 1492ETH     H2 7247   1.339   1.463   2.164
 1492ETH     H3 7248   1.456   1.615   1.925
 1492ETH     H4 7249   1.380   1.456   1.916
 1492ETH     H5 7250   1.188   1.552   1.998
 1493ETH      C 7251   1.393   4.104   1.917
 1493ETH     C1 7252   1.248   4.146   1.907
 1493ETH      O 7253   1.173   4.087   2.012
 1493ETH      H 7254   1.435   4.135   2.014
 1493ETH     H1 7255   1.452   4.150   1.836
 1493ETH     H2 7256   1.403   3.996   1.910
 1493ETH     H3 7257   1.239   4.254   1.915
 1493ETH     H4 7258   1.205   4.115   1.811
 1493ETH     H5 7259   1.181   3.990   2.003
 1494ETH      C 7260   2.518   5.430   2.144
 1494ETH     C1 7261   2.545   5.398   1.998
 1494ETH      O 7262   2.683   5.405   1.971
 1494ETH      H 7263   2.572   5.359   2.208
 1494ETH     H1 7264   2.411   5.424   2.166
 1494ETH     H2 7265   2.554   5.530   2.169
 1494ETH     H3 7266   2.510   5.298   1.974
 1494ETH     H4 7267   2.492   5.469   1.933
 1494ETH     H5 7268   2.713   5.496   1.991
 1495ETH      C 7269   5.042   5.500   2.115
 1495ETH     C1 7270   4.931   5.538   2.017
 1495ETH      O 7271   4.953   5.475   1.892
 1495ETH      H 7272   5.044   5.391   2.128
 1495ETH     H1 7273   5.025   5.548   2.212
 1495ETH     H2 7274   5.139   5.531   2.076
 1495ETH     H3 7275   4.835   5.506   2.055
 1495ETH     H4 7276   4.929   5.647   2.002
 1495ETH     H5 7277   5.040   5.506   1.859
 1496ETH      C 7278   4.713   2.084   2.254
 1496ETH     C1 7279   4.766   2.080   2.396
 1496ETH      O 7280   4.906   2.063   2.395
 1496ETH      H 7281   4.760   2.167   2.199
 1496ETH     H1 7282   4.604   2.098   2.253
 1496ETH     H2 7283   4.737   1.992   2.201
 1496ETH     H3 7284   4.743   2.173   2.448
 1496ETH     H4 7285   4.721   1.997   2.451
 1496ETH     H5 7286   4.926   1.978   2.349
 1497ETH      C 7287   1.557   0.861   0.334
 1497ETH     C1 7288   1.459   0.806   0.231
 1497ETH      O 7289   1.371   0.714   0.293
 1497ETH      H 7290   1.503   0.911   0.415
 1497ETH     H1 7291   1.625   0.933   0.287
 1497ETH     H2 7292   1.616   0.780   0.378
 1497ETH     H3 7293   1.400   0.887   0.189
 1497ETH     H4 7294   1.512   0.756   0.150
 1497ETH     H5 7295   1.426   0.641   0.329
 1498ETH      C 7296   3.950   3.958   5.205
 1498ETH     C1 7297   3.930   3.999   5.350
 1498ETH      O 7298   4.002   4.118   5.377
 1498ETH      H 7299   3.915   4.038   5.138
 1498ETH     H1 7300   3.894   3.867   5.183
 1498ETH     H2 7301   4.055   3.942   5.184
 1498ETH     H3 7302   3.825   4.018   5.370
 1498ETH     H4 7303   3.965   3.921   5.417
 1498ETH     H5 7304   4.096   4.100   5.360
 1499ETH      C 7305   2.731   5.010   3.493
 1499ETH     C1 7306   2.796   4.925   3.601
 1499ETH      O 7307   2.724   4.804   3.617
 1499ETH      H 7308   2.728   4.955   3.398
 1499ETH     H1 7309   2.786   5.103   3.478
 1499ETH     H2 7310   2.628   5.033   3.519
 1499ETH     H3 7311   2.898   4.900   3.573
 1499ETH     H4 7312   2.798   4.978   3.696
 1499ETH     H5 7313   2.633   4.827   3.644
 1500ETH      C 7314   0.653   0.441   2.709
 1500ETH     C1 7315   0.621   0.305   2.768
 1500ETH      O 7316   0.734   0.221   2.760
 1500ETH      H 7317   0.737   0.487   2.763
 1500ETH     H1 7318   0.566   0.508   2.716
 1500ETH     H2 7319   0.682   0.432   2.605
 1500ETH     H3 7320   0.593   0.314   2.873
 1500ETH     H4 7321   0.538   0.258   2.715
 1500ETH     H5 7322   0.758   0.212   2.665
 1501ETH      C 7323   3.792   4.160   1.661
 1501ETH     C1 7324   3.882   4.080   1.568
 1501ETH      O 7325   3.829   4.081   1.437
 1501ETH      H 7326   3.784   4.263   1.626
 1501ETH     H1 7327   3.833   4.160   1.763
 1501ETH     H2 7328   3.692   4.118   1.663
 1501ETH     H3 7329   3.982   4.123   1.565
 1501ETH     H4 7330   3.890   3.977   1.602
 1501ETH     H5 7331   3.739   4.041   1.441
 1502ETH      C 7332   2.502   3.956   3.224
 1502ETH     C1 7333   2.493   3.858   3.340
 1502ETH      O 7334   2.544   3.732   3.302
 1502ETH      H 7335   2.606   3.966   3.191
 1502ETH     H1 7336   2.464   4.054   3.253
 1502ETH     H2 7337   2.444   3.919   3.139
 1502ETH     H3 7338   2.552   3.894   3.424
 1502ETH     H4 7339   2.390   3.847   3.373
 1502ETH     H5 7340   2.489   3.700   3.227
 1503ETH      C 7341   4.740   3.269   1.131
 1503ETH     C1 7342   4.701   3.209   1.265
 1503ETH      O 7343   4.630   3.088   1.246
 1503ETH      H 7344   4.802   3.198   1.075
 1503ETH     H1 7345   4.796   3.362   1.145
 1503ETH     H2 7346   4.651   3.289   1.071
 1503ETH     H3 7347   4.790   3.187   1.324
 1503ETH     H4 7348   4.638   3.278   1.322
 1503ETH     H5 7349   4.550   3.109   1.194
 1504ETH      C 7350   0.510   2.120   4.851
 1504ETH     C1 7351   0.392   2.031   4.890
 1504ETH      O 7352   0.327   2.085   5.004
 1504ETH      H 7353   0.475   2.221   4.830
 1504ETH     H1 7354   0.561   2.080   4.763
 1504ETH     H2 7355   0.581   2.127   4.933
 1504ETH     H3 7356   0.320   2.026   4.809
 1504ETH     H4 7357   0.426   1.930   4.913
 1504ETH     H5 7358   0.392   2.088   5.077
 1505ETH      C 7359   3.324   4.969   2.137
 1505ETH     C1 7360   3.406   4.911   2.251
 1505ETH      O 7361   3.457   4.784   2.216
 1505ETH      H 7362   3.385   4.977   2.046
 1505ETH     H1 7363   3.285   5.067   2.163
 1505ETH     H2 7364   3.240   4.902   2.113
 1505ETH     H3 7365   3.491   4.977   2.273
 1505ETH     H4 7366   3.346   4.902   2.341
 1505ETH     H5 7367   3.380   4.726   2.198
 1506ETH      C 7368   5.472   0.752   0.572
 1506ETH     C1 7369   5.432   0.667   0.692
 1506ETH      O 7370   5.332   0.731   0.767
 1506ETH      H 7371   5.385   0.771   0.509
 1506ETH     H1 7372   5.549   0.703   0.513
 1506ETH     H2 7373   5.509   0.849   0.606
 1506ETH     H3 7374   5.394   0.571   0.658
 1506ETH     H4 7375   5.519   0.648   0.756
 1506ETH     H5 7376   5.368   0.817   0.798
 1507ETH      C 7377   0.599   3.351   4.270
 1507ETH     C1 7378   0.512   3.468   4.312
 1507ETH      O 7379   0.433   3.512   4.204
 1507ETH      H 7380   0.536   3.268   4.234
 1507ETH     H1 7381   0.661   3.316   4.354
 1507ETH     H2 7382   0.665   3.380   4.188
 1507ETH     H3 7383   0.446   3.438   4.394
 1507ETH     H4 7384   0.574   3.551   4.347
 1507ETH     H5 7385   0.494   3.539   4.132
 1508ETH      C 7386   3.135   2.482   3.531
 1508ETH     C1 7387   3.181   2.522   3.391
 1508ETH      O 7388   3.260   2.420   3.335
 1508ETH      H 7389   3.078   2.389   3.527
 1508ETH     H1 7390   3.072   2.561   3.575
 1508ETH     H2 7391   3.221   2.465   3.596
 1508ETH     H3 7392   3.094   2.537   3.327
 1508ETH     H4 7393   3.238   2.615   3.394
 1508ETH     H5 7394   3.338   2.408   3.394
 1509ETH      C 7395   5.543   2.046   2.299
 1509ETH     C1 7396   5.559   1.914   2.373
 1509ETH      O 7397   5.567   1.807   2.281
 1509ETH      H 7398   5.628   2.062   2.231
 1509ETH     H1 7399   5.538   2.130   2.369
 1509ETH     H2 7400   5.453   2.045   2.238
 1509ETH     H3 7401   5.650   1.915   2.432
 1509ETH     H4 7402   5.474   1.898   2.440
 1509ETH     H5 7403   5.483   1.807   2.229
 1510ETH      C 7404   2.729   2.596   5.556
 1510ETH     C1 7405   2.665   2.732   5.583
 1510ETH      O 7406   2.635   2.796   5.461
 1510ETH      H 7407   2.661   2.534   5.497
 1510ETH     H1 7408   2.752   2.545   5.650
 1510ETH     H2 7409   2.821   2.608   5.499
 1510ETH     H3 7410   2.572   2.719   5.639
 1510ETH     H4 7411   2.732   2.795   5.641
 1510ETH     H5 7412   2.720   2.808   5.412
   5.80000   5.80000   5.80000
