CLS single chain in water/ethanol mixed solvent
 7412
    1CLSA    H1    1   3.932   5.583   1.498 -1.4079 -0.6306 -0.7890
    1CLSA    C1    2   3.891   5.518   1.576 -0.3757 -0.6499 -0.2318
    1CLSA    C2    3   3.706   5.333   1.692  0.3471  0.5651  0.8951
    1CLSA    C3    4   3.880   5.372   1.533  1.2660 -0.5584 -1.0249
    1CLSA    C4    5   3.751   5.576   1.633 -0.1258  0.2694 -0.3593
    1CLSA    C5    6   3.692   5.475   1.739 -0.3218 -0.1672  0.0187
    1CLSA    H2    7   3.637   5.304   1.612 -1.0792 -3.8239  3.3331
    1CLSA    H3    8   3.966   5.534   1.654 -1.5053 -0.9557  0.9692
    1CLSA    H4    9   3.676   5.579   1.553 -0.8010  1.4230  0.2828
    1CLSA    H5   10   3.766   5.484   1.820  1.3896  0.8901 -1.5957
    1CLSA    H6   11   3.797   5.354   1.463 -1.0228 -2.6465  1.9626
    1CLSA    O1   12   3.760   5.709   1.690 -0.1398  0.1285  0.0328
    1CLSA    H7   13   3.695   5.757   1.636 -0.2736 -0.2065 -0.1090
    1CLSA    O2   14   3.564   5.522   1.778  0.8442  0.4700  0.0237
    1CLSA    H8   15   3.542   5.466   1.855 -1.4975  1.9622  0.5415
    1CLSA    O3   16   3.842   5.308   1.657  0.2373  0.2422 -0.0222
    1CLSA    C6   17   4.014   5.309   1.483  0.1341 -0.0539  0.0004
    1CLSA    H9   18   3.991   5.206   1.453 -1.3473  0.1395  0.3903
    1CLSA   H10   19   4.039   5.372   1.396 -1.6165 -0.4686 -0.8536
    1CLSA    O4   20   4.123   5.313   1.586  0.0069  0.0067  0.1790
    1CLSA   H11   21   4.098   5.257   1.661  0.6570 -0.1391  0.2903
    1CLSA    O5   22   3.684   5.235   1.802 -0.7472  0.3504  0.2097
    2CLSB    C7   23   3.611   5.118   1.757 -0.4807 -0.0366  0.5351
    2CLSB    C8   24   3.627   4.877   1.747  0.5134  1.1460 -0.1923
    2CLSB    C9   25   3.705   5.006   1.787 -0.5097  0.2449  0.4133
    2CLSB   C10   26   3.469   5.109   1.821  0.3463  0.7339  0.7819
    2CLSB   C11   27   3.497   4.863   1.826  0.3431  1.0146  0.1836
    2CLSB   H12   28   3.784   5.016   1.712 -2.3049 -0.1134 -1.6173
    2CLSB   H13   29   3.601   4.869   1.641 -0.9793  0.8639  0.1812
    2CLSB   H14   30   3.472   5.107   1.931 -2.1915  1.8591  0.9625
    2CLSB   H15   31   3.518   4.866   1.933  0.9708  0.0957  0.0950
    2CLSB   H16   32   3.595   5.119   1.649 -1.7186  0.6931  0.6991
    2CLSB    O6   33   3.419   4.979   1.787  0.4257  0.3194  1.0395
    2CLSB   C12   34   3.370   5.216   1.772  0.1209 -0.6661  0.1664
    2CLSB   H17   35   3.272   5.189   1.812  0.7292 -0.3006  1.9825
    2CLSB   H18   36   3.407   5.307   1.819 -0.9758  0.2252 -0.6396
    2CLSB    O7   37   3.367   5.225   1.627  0.2765  0.1000  0.3183
    2CLSB   H19   38   3.282   5.186   1.600 -0.6143 -0.0650  3.0445
    2CLSB    O8   39   3.710   4.765   1.778 -0.7806 -0.3601  0.3209
    2CLSB   H20   40   3.772   4.810   1.838 -0.5391  1.7944 -1.4070
    2CLSB    O9   41   3.749   5.004   1.927  0.2823 -0.3037  0.7226
    2CLSB   H21   42   3.780   5.094   1.946  2.1112 -0.5911 -0.5761
    2CLSB   O10   43   3.425   4.742   1.784  0.5798  0.7665  0.2326
    3CLSA   C13   44   3.297   4.725   1.840 -0.0378  0.2475 -0.6447
    3CLSA   C14   45   3.077   4.517   1.858  0.1604  0.0895 -0.7849
    3CLSA   C15   46   3.302   4.592   1.921 -0.3681 -0.2470  0.1738
    3CLSA   C16   47   3.196   4.704   1.718  0.5080 -0.0861  0.4072
    3CLSA   C17   48   3.056   4.639   1.763  0.5479  0.7762 -0.4630
    3CLSA   H22   49   3.122   4.434   1.802  0.9015 -0.3028  0.3570
    3CLSA   H23   50   3.258   4.803   1.907 -4.7842 -4.1592  2.4487
    3CLSA   H24   51   3.247   4.629   1.658  1.3659  0.6032  0.2625
    3CLSA   H25   52   3.008   4.721   1.818  0.1154 -0.5103  1.1796
    3CLSA   H26   53   3.341   4.519   1.848  1.8028  0.3651  0.6371
    3CLSA   O11   54   3.179   4.822   1.635 -0.1583  0.2170 -0.2352
    3CLSA   H27   55   3.088   4.812   1.601 -0.1481  1.6752 -0.7809
    3CLSA   O12   56   2.982   4.601   1.649  0.1541  0.5091  0.3619
    3CLSA   H28   57   2.994   4.505   1.633 -1.3778  0.4747 -0.8281
    3CLSA   O13   58   3.161   4.558   1.964  0.1701 -0.0225  0.0312
    3CLSA   C18   59   3.405   4.604   2.044 -0.7306  0.0414 -0.5966
    3CLSA   H29   60   3.415   4.506   2.093 -0.4341 -0.7680 -2.2131
    3CLSA   H30   61   3.505   4.623   2.003  0.2190 -0.3843  1.4120
    3CLSA   O14   62   3.369   4.707   2.135 -0.2394  0.7019  0.1544
    3CLSA   H31   63   3.273   4.698   2.142 -0.5914  1.9057 -2.1986
    3CLSA   O15   64   2.948   4.472   1.915  0.1043 -0.1253 -0.3323
    4CLSB   C19   65   2.945   4.357   2.003  0.0570 -0.0736  0.3557
    4CLSB   C20   66   2.918   4.299   2.250 -0.2615 -0.2230  0.3241
    4CLSB   C21   67   2.951   4.412   2.148 -0.6991 -0.0946 -0.3151
    4CLSB   C22   68   2.823   4.273   1.978  0.1467 -0.2462  0.6038
    4CLSB   C23   69   2.787   4.234   2.217 -0.5786  0.0116  0.5999
    4CLSB   H32   70   3.055   4.445   2.158 -0.8607  0.9740 -1.7076
    4CLSB   H33   71   3.005   4.232   2.258 -1.4530 -1.5487  3.7590
    4CLSB   H34   72   2.741   4.347   1.977  1.0748  0.8124 -0.4666
    4CLSB   H35   73   2.711   4.313   2.211 -1.6327 -1.0005 -0.0652
    4CLSB   H36   74   3.035   4.297   1.989 -1.4004 -2.4453  0.5697
    4CLSB   O16   75   2.797   4.170   2.083  0.0560 -0.2650 -0.1632
    4CLSB   C24   76   2.823   4.213   1.831  0.4481  0.0995 -0.3338
    4CLSB   H37   77   2.858   4.288   1.759  0.2036 -0.3657 -0.9366
    4CLSB   H38   78   2.900   4.136   1.823 -0.6772 -1.0964  0.0983
    4CLSB   O17   79   2.689   4.176   1.799  0.3720  0.7056 -0.1173
    4CLSB   H39   80   2.667   4.217   1.714  2.3109 -0.4950 -1.2921
    4CLSB   O18   81   2.911   4.362   2.374 -0.0498  0.1822 -0.0701
    4CLSB   H40   82   2.885   4.452   2.348  1.0122  1.4782  2.9037
    4CLSB   O19   83   2.866   4.530   2.167 -0.0368  0.3272  0.0516
    4CLSB   H41   84   2.910   4.610   2.133  3.6710 -0.8198  1.6171
    4CLSB   O20   85   2.753   4.134   2.315 -0.0886 -0.2093  0.1220
    5CLSA   C25   86   2.618   4.092   2.340 -0.7835  0.9172  0.1910
    5CLSA   C26   87   2.437   3.885   2.453  0.5519  0.2296  0.2534
    5CLSA   C27   88   2.609   4.049   2.490 -0.4856 -0.0418  1.2001
    5CLSA   C28   89   2.582   3.977   2.246 -0.2727  0.0327 -0.2321
    5CLSA   C29   90   2.438   3.913   2.293  1.1317 -0.2004 -0.7376
    5CLSA   H42   91   2.505   3.808   2.490 -0.8986 -0.4030  1.7710
    5CLSA   H43   92   2.552   4.177   2.321  0.5446  1.5766 -1.7277
    5CLSA   H44   93   2.652   3.893   2.256 -0.9051 -0.5515 -0.6175
    5CLSA   H45   94   2.361   3.988   2.275  1.6060  1.3639  2.9050
    5CLSA   H46   95   2.686   3.972   2.503  0.4608  0.7397  0.3586
    5CLSA   O21   96   2.572   4.018   2.108 -0.3724  0.0054  0.2249
    5CLSA   H47   97   2.652   4.069   2.085 -0.4467 -0.4919 -1.2252
    5CLSA   O22   98   2.414   3.781   2.221 -0.6438 -1.0632 -0.7636
    5CLSA   H48   99   2.486   3.722   2.249 -0.5908 -0.1821  1.0868
    5CLSA   O23  100   2.479   4.003   2.522  0.0646 -0.7572 -0.0197
    5CLSA   C30  101   2.642   4.161   2.583  0.2032  0.5671 -0.5442
    5CLSA   H49  102   2.751   4.173   2.571  0.4528 -1.1242 -0.2501
    5CLSA   H50  103   2.590   4.255   2.561 -1.8413 -0.5101 -0.5066
    5CLSA   O24  104   2.615   4.117   2.705 -0.5176  0.2631 -0.2334
    5CLSA   H51  105   2.555   4.042   2.688 -1.2920  0.9612 -0.6522
    5CLSA   O25  106   2.301   3.865   2.490 -0.1338 -0.3198  0.3095
    6CLSB   C31  107   2.274   3.812   2.621 -0.2854  0.1639 -0.0027
    6CLSB   C32  108   2.221   3.882   2.864 -0.0986  0.0600  0.1856
    6CLSB   C33  109   2.255   3.932   2.724 -1.0828 -0.1722 -0.3297
    6CLSB   C34  110   2.150   3.720   2.622  0.5296  0.1960 -0.4783
    6CLSB   C35  111   2.082   3.812   2.841 -0.0467 -0.1753  0.1248
    6CLSB   H52  112   2.351   3.983   2.736 -0.8053 -0.8226  0.3305
    6CLSB   H53  113   2.295   3.812   2.904 -0.4387 -0.2358  0.3095
    6CLSB   H54  114   2.070   3.777   2.573  0.1689  0.2367  0.1563
    6CLSB   H55  115   2.011   3.879   2.792 -0.9945 -1.0206  0.2954
    6CLSB   H56  116   2.363   3.766   2.665 -1.0244 -1.7946 -0.4848
    6CLSB   O26  117   2.109   3.698   2.756 -0.3944 -0.1322  0.7787
    6CLSB   C36  118   2.184   3.583   2.546  0.1621 -0.6286 -0.2789
    6CLSB   H57  119   2.091   3.530   2.522  0.1843 -1.1497  0.7261
    6CLSB   H58  120   2.233   3.608   2.451  0.7937  1.8063  0.6254
    6CLSB   O27  121   2.256   3.493   2.626  0.0242  0.1039  0.4489
    6CLSB   H59  122   2.201   3.416   2.651  0.2779  0.0042  0.7052
    6CLSB   O28  123   2.218   3.995   2.945  0.3833  0.3356 -0.5112
    6CLSB   H60  124   2.181   4.059   2.881 -3.3941 -0.1644  0.8673
    6CLSB   O29  125   2.154   4.035   2.682 -0.5237 -0.0674  0.2312
    6CLSB   H61  126   2.196   4.090   2.614  0.0849  0.4341  0.9974
    6CLSB   O30  127   2.031   3.755   2.964  0.3024  0.0176  0.4045
    7CLSA   C37  128   1.883   3.731   2.964 -0.0992 -0.3608  0.4978
    7CLSA   C38  129   1.659   3.590   3.093  1.0487 -0.0419 -0.8302
    7CLSA   C39  130   1.837   3.769   3.102 -0.0558  0.1415  0.0149
    7CLSA   C40  131   1.857   3.579   2.933  0.0249  0.4542  0.1344
    7CLSA   C41  132   1.712   3.549   2.949  0.4382  0.0274 -0.2386
    7CLSA   H62  133   1.686   3.527   3.179  0.4505  1.1844  0.2876
    7CLSA   H63  134   1.836   3.790   2.884 -0.2316 -0.2569  0.6519
    7CLSA   H64  135   1.907   3.520   3.011 -1.6510 -1.9679 -0.5061
    7CLSA   H65  136   1.650   3.613   2.885 -0.7027 -0.4940  0.3110
    7CLSA   H66  137   1.905   3.710   3.164  0.7994  0.5466 -0.5185
    7CLSA   O31  138   1.901   3.531   2.801 -0.6612 -0.7743 -0.3986
    7CLSA   H67  139   1.987   3.575   2.787 -0.7391  0.3195  1.9923
    7CLSA   O32  140   1.688   3.406   2.916  0.0372 -0.1218  0.1800
    7CLSA   H68  141   1.743   3.377   2.842  1.0942 -2.0838  1.6322
    7CLSA   O33  142   1.700   3.727   3.127 -0.1062 -0.4118 -0.0824
    7CLSA   C42  143   1.844   3.918   3.127  0.7719 -0.4369  0.2313
    7CLSA   H69  144   1.949   3.947   3.113  0.9744 -1.2863 -0.0967
    7CLSA   H70  145   1.784   3.984   3.064 -0.0472 -1.1649  0.2362
    7CLSA   O34  146   1.803   3.933   3.261  0.1410 -0.2475 -0.1298
    7CLSA   H71  147   1.708   3.918   3.252 -0.0365  0.2685  0.6878
    7CLSA   O35  148   1.519   3.590   3.079 -0.2766 -0.0434  0.4271
    8CLSB   C43  149   1.447   3.482   3.136  0.4576  0.7465 -0.0011
    8CLSB   C44  150   1.362   3.400   3.357  0.0555  0.3865 -0.1076
    8CLSB   C45  151   1.462   3.494   3.286 -0.5095  0.1871 -0.1628
    8CLSB   C46  152   1.301   3.491   3.093 -0.2952 -0.3832 -0.2709
    8CLSB   C47  153   1.218   3.420   3.309 -0.1004 -0.0639  0.5979
    8CLSB   H72  154   1.563   3.463   3.317 -0.4013  1.3748  0.7214
    8CLSB   H73  155   1.392   3.296   3.339 -1.8216 -0.4116  1.0804
    8CLSB   H74  156   1.277   3.595   3.118 -2.8695 -0.9819 -0.0309
    8CLSB   H75  157   1.188   3.518   3.348 -0.6242 -0.7074  1.8710
    8CLSB   H76  158   1.491   3.387   3.101  1.8268  1.7405 -1.1084
    8CLSB   O36  159   1.209   3.403   3.166 -0.0690  0.4918  0.2041
    8CLSB   C48  160   1.282   3.482   2.945 -0.0022  0.5694 -0.1916
    8CLSB   H77  161   1.180   3.519   2.927 -0.4662  0.3299  1.7419
    8CLSB   H78  162   1.355   3.542   2.890 -1.0324  0.6317 -1.5595
    8CLSB   O37  163   1.301   3.351   2.903 -0.0021  0.5250 -0.6229
    8CLSB   H79  164   1.267   3.279   2.959  1.1025 -0.1335 -0.7603
    8CLSB   O38  165   1.366   3.420   3.498 -0.0775  0.3428 -0.0320
    8CLSB   H80  166   1.391   3.513   3.508  0.5061  0.3193 -1.1004
    8CLSB   O39  167   1.445   3.638   3.330 -0.2245  0.5242  0.4140
    8CLSB   H81  168   1.359   3.664   3.291  0.1178  2.3589  0.7598
    8CLSB   O40  169   1.144   3.306   3.360 -0.3734 -0.0814 -0.1014
    9CLSA   C49  170   0.998   3.332   3.403 -0.3163  0.3691  0.0909
    9CLSA   C50  171   0.778   3.180   3.533  0.0375  0.3632  0.4444
    9CLSA   C51  172   0.983   3.317   3.560 -0.3507  0.1202 -0.4986
    9CLSA   C52  173   0.915   3.229   3.327 -0.1546 -0.6303 -0.1629
    9CLSA   C53  174   0.767   3.218   3.382 -0.7512 -0.3679  0.2123
    9CLSA   H82  175   0.841   3.090   3.543 -0.5388 -0.0719  0.2516
    9CLSA   H83  176   0.959   3.430   3.373 -2.8272 -0.2046  1.2365
    9CLSA   H84  177   0.955   3.128   3.343 -1.0820 -1.0707 -0.6053
    9CLSA   H85  178   0.715   3.314   3.369 -1.5032 -0.8732 -0.6217
    9CLSA   H86  179   1.045   3.228   3.577 -0.4148 -0.1723 -1.6678
    9CLSA   O41  180   0.918   3.248   3.190  0.2504 -0.1858  0.8850
    9CLSA   H87  181   0.832   3.209   3.164  0.6039 -0.6492  0.3900
    9CLSA   O42  182   0.704   3.118   3.301 -0.3235  0.1267  0.1567
    9CLSA   H88  183   0.725   3.030   3.339 -1.2516  0.1563  0.7862
    9CLSA   O43  184   0.842   3.295   3.599 -0.5530  0.2160  0.0028
    9CLSA   C54  185   1.041   3.436   3.633  0.2792 -0.4812  0.6679
    9CLSA   H89  186   1.143   3.464   3.604 -0.1333  0.9540  0.5240
    9CLSA   H90  187   0.982   3.523   3.601  1.5317  0.1498 -0.0077
    9CLSA   O44  188   1.024   3.429   3.772 -0.3313  0.2921  0.1117
    9CLSA   H91  189   0.960   3.498   3.798 -3.1970 -2.1664  0.0889
    9CLSA   O45  190   0.648   3.164   3.598  0.3456 -0.0029  0.3335
   10CLSB   C55  191   0.647   3.095   3.727  0.0071 -0.3312 -0.2285
   10CLSB   C56  192   0.643   3.136   3.972  0.0168 -0.5673 -0.0890
   10CLSB   C57  193   0.686   3.199   3.837 -0.1201 -0.6983  0.4623
   10CLSB   C58  194   0.500   3.044   3.725 -0.2431 -0.3053 -0.4350
   10CLSB   C59  195   0.487   3.091   3.965 -0.0796 -0.6740 -0.0727
   10CLSB   H92  196   0.794   3.218   3.828 -0.2627  0.5172  1.2099
   10CLSB   H93  197   0.711   3.050   3.983  1.4015  0.4052 -0.6829
   10CLSB   H94  198   0.434   3.132   3.718 -0.2176  0.0654  2.5520
   10CLSB   H95  199   0.426   3.178   3.939  2.9725  2.4214  2.2095
   10CLSB   H96  200   0.724   3.016   3.728 -0.3664 -0.7275 -1.2024
   10CLSB   O46  201   0.482   2.996   3.860 -0.2000  0.2820 -0.1049
   10CLSB   C60  202   0.467   2.938   3.627  0.2735  0.2043  0.2486
   10CLSB   H97  203   0.357   2.936   3.619  0.1393 -0.6039  1.8668
   10CLSB   H98  204   0.504   2.960   3.526 -0.4507  0.7037  0.0782
   10CLSB   O47  205   0.522   2.820   3.684 -0.0015  0.3751 -0.1234
   10CLSB   H99  206   0.510   2.847   3.777  0.7127  1.2992 -0.2864
   10CLSB   O48  207   0.675   3.229   4.081  0.6001  0.0037 -0.1756
   10CLSB  H100  208   0.666   3.315   4.037 -0.8217 -0.2446 -0.4233
   10CLSB   O49  209   0.615   3.322   3.805  0.2626  0.2278  0.2740
   10CLSB  H101  210   0.576   3.298   3.719  1.1538 -0.2789  0.0055
   10CLSB   O50  211   0.445   3.035   4.091  0.3141  0.1271  0.2054
   10CLSB  H102  212   0.434   3.112   4.150  1.1345  1.6799 -1.5376
   11SOL     OW  213   4.039   1.666   3.768 -0.2731 -0.3811 -0.1728
   11SOL    HW1  214   4.047   1.653   3.669 -2.6043 -0.8203 -0.3596
   11SOL    HW2  215   4.130   1.681   3.806  1.0457 -2.9904 -1.9693
   12SOL     OW  216   3.071   3.564   5.669 -0.3126  0.0742  0.1171
   12SOL    HW1  217   2.999   3.625   5.701 -0.2439 -0.0187  0.4633
   12SOL    HW2  218   3.064   3.553   5.570 -1.6398 -1.0365  0.3051
   13SOL     OW  219   5.159   2.923   3.426 -0.0973 -0.3270  0.3884
   13SOL    HW1  220   5.134   2.898   3.520  1.5159 -0.2811  0.8642
   13SOL    HW2  221   5.220   2.853   3.388 -0.1788  0.0036 -0.3777
   14SOL     OW  222   2.586   3.312   5.305 -0.0055  0.1279  0.1095
   14SOL    HW1  223   2.496   3.354   5.313  0.0583  0.1784  0.5809
   14SOL    HW2  224   2.648   3.354   5.371  0.3297  0.0032 -0.1239
   15SOL     OW  225   3.432   5.561   3.103 -0.4672 -0.5376 -0.0952
   15SOL    HW1  226   3.396   5.596   3.189 -0.7303  1.5214 -0.9747
   15SOL    HW2  227   3.361   5.569   3.032 -0.7353 -3.4525 -0.2863
   16SOL     OW  228   4.477   5.666   3.170  0.6174 -0.2858  0.2408
   16SOL    HW1  229   4.545   5.695   3.102 -0.4181 -0.0266 -0.7194
   16SOL    HW2  230   4.471   5.735   3.242 -0.9267  1.3561 -1.3749
   17SOL     OW  231   4.328   3.431   4.441  0.1405 -0.1390  0.2478
   17SOL    HW1  232   4.244   3.383   4.463  0.2552 -0.2052  0.5402
   17SOL    HW2  233   4.391   3.425   4.518  0.4657 -0.2023 -0.0206
   18SOL     OW  234   2.178   2.347   2.612 -0.8591 -0.1335 -0.2438
   18SOL    HW1  235   2.214   2.267   2.563  0.1495  1.8585 -2.9607
   18SOL    HW2  236   2.089   2.372   2.573 -1.1947  0.0624  0.6259
   19SOL     OW  237   1.525   3.521   2.093 -0.2075 -0.8638  0.5484
   19SOL    HW1  238   1.560   3.444   2.148  3.0109 -0.5511 -0.8777
   19SOL    HW2  239   1.557   3.607   2.133  0.2282 -0.5237 -0.5035
   20SOL     OW  240   3.334   2.402   1.129  0.2752  0.0699 -0.0364
   20SOL    HW1  241   3.342   2.400   1.228 -0.2843 -1.1382 -0.0050
   20SOL    HW2  242   3.402   2.466   1.092  0.5471  0.4654  1.1026
   21SOL     OW  243   2.935   4.317   0.916 -0.0038  0.4623  0.5098
   21SOL    HW1  244   2.864   4.246   0.911  0.7160 -0.3253  1.1200
   21SOL    HW2  245   3.020   4.281   0.876  0.0275  1.4417 -0.3407
   22SOL     OW  246   3.829   4.877   2.157  0.1452  0.1677  0.2118
   22SOL    HW1  247   3.821   4.921   2.067 -0.9693 -0.1406  0.1464
   22SOL    HW2  248   3.738   4.856   2.191  0.5613  0.3112  1.4457
   23SOL     OW  249   1.590   3.384   4.693 -0.6622  0.4132 -0.2902
   23SOL    HW1  250   1.572   3.290   4.662  0.0594 -0.1955  1.0670
   23SOL    HW2  251   1.657   3.382   4.767 -0.2642  2.0583 -0.5675
   24SOL     OW  252   2.276   1.728   2.764  0.3120 -0.2888 -0.2155
   24SOL    HW1  253   2.297   1.663   2.837 -1.0035 -0.1929  0.2754
   24SOL    HW2  254   2.328   1.703   2.682  3.0216  0.5000  1.1446
   25SOL     OW  255   2.761   3.884   1.841 -0.0150  0.5122  0.5162
   25SOL    HW1  256   2.682   3.944   1.856 -0.2982  0.5410 -0.9455
   25SOL    HW2  257   2.730   3.790   1.834 -0.0146  0.5841 -0.6361
   26SOL     OW  258   3.535   0.876   3.024 -0.0454 -0.1739 -0.3623
   26SOL    HW1  259   3.546   0.908   3.118  0.4241  0.0614 -0.4917
   26SOL    HW2  260   3.624   0.878   2.978 -0.2929 -0.1551 -0.8521
   27SOL     OW  261   2.238   0.968   3.176 -0.2650 -0.5466  0.1603
   27SOL    HW1  262   2.167   0.940   3.111  0.0820  0.9528 -0.9466
   27SOL    HW2  263   2.327   0.966   3.129  0.2732 -1.2636  1.1782
   28SOL     OW  264   2.191   3.813   2.076 -0.2116 -0.1443 -0.0865
   28SOL    HW1  265   2.178   3.911   2.062  0.5450  0.4772  2.9162
   28SOL    HW2  266   2.258   3.798   2.149 -0.4743 -2.9106 -0.2799
   29SOL     OW  267   0.890   2.855   3.861 -0.6409 -0.0306  0.0703
   29SOL    HW1  268   0.949   2.922   3.905 -3.5028  2.5318  0.3356
   29SOL    HW2  269   0.914   2.848   3.764 -0.2113  1.3188  0.0645
   30SOL     OW  270   2.233   3.670   5.011  0.1356 -0.1399  0.4786
   30SOL    HW1  271   2.190   3.720   5.086  0.1096 -0.5063  0.7106
   30SOL    HW2  272   2.197   3.703   4.924  1.1248  1.2274  0.5418
   31SOL     OW  273   1.768   2.914   5.026 -0.6852  0.4421 -0.0880
   31SOL    HW1  274   1.850   2.956   5.066  0.2348  2.2214 -3.3938
   31SOL    HW2  275   1.697   2.984   5.018 -1.4543 -0.3191  0.0639
   32SOL     OW  276   2.973   0.123   2.229 -0.3804 -0.2951 -0.1301
   32SOL    HW1  277   2.905   0.093   2.296 -0.9367  0.1297 -0.4943
   32SOL    HW2  278   2.971   0.062   2.150 -1.4238  0.5813 -0.8149
   33SOL     OW  279   1.499   4.018   2.064  0.7504  0.0520  0.1100
   33SOL    HW1  280   1.421   3.990   2.008  1.1595  0.8014 -0.8691
   33SOL    HW2  281   1.583   3.985   2.023  0.9822 -0.6001  1.0673
   34SOL     OW  282   4.692   3.344   3.076  0.1409 -0.1972  0.7597
   34SOL    HW1  283   4.709   3.377   2.984 -0.0448 -0.8960  0.4697
   34SOL    HW2  284   4.593   3.347   3.094  0.3262  1.8053  1.6568
   35SOL     OW  285   4.738   3.261   3.316  0.5104 -0.1913 -0.1056
   35SOL    HW1  286   4.713   3.299   3.228 -1.9334 -0.6010  0.3275
   35SOL    HW2  287   4.756   3.163   3.306  0.6746 -0.1467 -0.2324
   36SOL     OW  288   1.732   3.366   4.943 -0.0114  0.1646 -0.1678
   36SOL    HW1  289   1.805   3.427   4.912  1.1870 -0.6275  0.9852
   36SOL    HW2  290   1.731   3.365   5.043  1.3682 -3.1778 -0.0655
   37SOL     OW  291   2.407   4.694   2.799  0.0021  0.1596  0.1572
   37SOL    HW1  292   2.481   4.668   2.737  1.5480 -2.0038  2.7076
   37SOL    HW2  293   2.446   4.741   2.878 -1.7193  1.3923  0.3148
   38SOL     OW  294   2.226   5.549   2.331  0.1992 -0.1861  0.0974
   38SOL    HW1  295   2.143   5.597   2.359  0.6181  0.4283  0.2859
   38SOL    HW2  296   2.220   5.453   2.360 -0.2182 -0.0203  0.5620
   39SOL     OW  297   1.974   5.648   2.428  0.1276 -0.1278  0.2125
   39SOL    HW1  298   1.889   5.679   2.385 -0.5075 -0.7777  0.9610
   39SOL    HW2  299   1.953   5.611   2.519  1.4324  1.2209  1.1097
   40SOL     OW  300   1.683   2.921   2.420 -0.1910 -0.5372  0.6235
   40SOL    HW1  301   1.723   2.840   2.377  0.7933  1.3440 -2.3673
   40SOL    HW2  302   1.746   2.957   2.489  1.4118  0.0008 -1.0484
   41SOL     OW  303   3.372   0.502   2.510  0.3011 -0.4304  0.0838
   41SOL    HW1  304   3.366   0.563   2.431  1.6687 -0.8109 -0.3370
   41SOL    HW2  305   3.367   0.555   2.594 -1.1955 -0.0218 -0.2250
   42SOL     OW  306   1.409   2.343   4.053  0.2645 -0.1509  0.5424
   42SOL    HW1  307   1.441   2.267   3.997  0.3011 -1.2076  1.9404
   42SOL    HW2  308   1.383   2.419   3.994 -1.1241 -1.7493 -1.0178
   43SOL     OW  309   1.820   1.557   4.045 -0.1953 -0.3472  0.2204
   43SOL    HW1  310   1.745   1.547   4.110  0.8773 -0.2521  1.5261
   43SOL    HW2  311   1.905   1.571   4.096  0.8021 -1.0298 -1.1956
   44SOL     OW  312   5.032   3.054   3.227  0.4720 -0.4681 -0.3623
   44SOL    HW1  313   4.935   3.052   3.203 -0.4014  3.1465  2.0187
   44SOL    HW2  314   5.050   2.990   3.301 -0.0394 -1.2437 -0.8997
   45SOL     OW  315   3.540   3.072   4.349  0.2763  0.7247 -0.4098
   45SOL    HW1  316   3.503   3.103   4.437  0.3381  2.2644 -0.8865
   45SOL    HW2  317   3.469   3.023   4.299  0.9290 -2.4120  1.4539
   46SOL     OW  318   2.999   5.738   2.041  0.4062 -0.3405 -0.2947
   46SOL    HW1  319   2.964   5.784   1.959  1.3788  0.0867 -0.4844
   46SOL    HW2  320   3.084   5.691   2.018  1.5476  1.0846  0.8115
   47SOL     OW  321   3.989   3.684   1.293  0.1375 -0.0259 -0.3894
   47SOL    HW1  322   3.940   3.654   1.210 -0.7362 -1.0995  0.4775
   47SOL    HW2  323   3.941   3.649   1.373  1.7622 -0.1834  0.5410
   48SOL     OW  324   2.854   3.857   2.087  0.1209 -0.0935  0.2314
   48SOL    HW1  325   2.802   3.858   2.002  0.0914 -2.8579  0.1145
   48SOL    HW2  326   2.947   3.824   2.068  0.2197 -0.4073  1.2083
   49SOL     OW  327   0.461   3.576   3.773 -0.1345  0.1053  0.0126
   49SOL    HW1  328   0.372   3.597   3.813 -0.4934 -0.3650 -0.5002
   49SOL    HW2  329   0.451   3.574   3.673  0.6449  0.8753 -0.0894
   50SOL     OW  330   4.375   3.607   3.757  0.1590 -1.1185 -0.3178
   50SOL    HW1  331   4.331   3.522   3.728  0.3016 -1.9120  1.6463
   50SOL    HW2  332   4.474   3.600   3.741  0.2387 -1.5580  0.3221
   51SOL     OW  333   2.308   4.294   3.547 -0.0637  0.0881  0.4988
   51SOL    HW1  334   2.221   4.246   3.537  0.4408 -0.7370  0.0190
   51SOL    HW2  335   2.324   4.314   3.644 -0.4795 -0.3220  0.6518
   52SOL     OW  336   3.209   3.971   1.176 -0.2230  0.7698  0.0796
   52SOL    HW1  337   3.263   3.997   1.256 -0.9664 -0.1180  0.9090
   52SOL    HW2  338   3.112   3.964   1.203 -0.2084 -1.7956 -0.2840
   53SOL     OW  339   4.266   2.181   2.101 -0.1189  0.8816 -0.4086
   53SOL    HW1  340   4.291   2.117   2.174  2.8521  0.9363 -1.2625
   53SOL    HW2  341   4.222   2.130   2.027  0.6285  0.1113 -0.3342
   54SOL     OW  342   2.041   1.154   2.886 -0.3217  0.5435  0.2719
   54SOL    HW1  343   2.078   1.077   2.938 -0.0778  0.4720 -0.0057
   54SOL    HW2  344   1.952   1.127   2.847  0.9682 -0.5800 -2.0951
   55SOL     OW  345   1.236   2.794   3.964  0.2871  0.3892 -0.2767
   55SOL    HW1  346   1.205   2.800   3.870 -0.3544  0.4441 -0.0673
   55SOL    HW2  347   1.293   2.713   3.975 -0.1432  0.0425 -0.5701
   56SOL     OW  348   2.878   2.489   1.130 -0.1951  0.2139  0.1397
   56SOL    HW1  349   2.867   2.411   1.068  2.3910  0.7316 -1.0825
   56SOL    HW2  350   2.847   2.572   1.085  1.8478  0.6177 -0.6308
   57SOL     OW  351   3.085   0.811   2.883  0.3224 -0.1895  0.0081
   57SOL    HW1  352   3.040   0.774   2.964 -0.3604  2.4477  0.9506
   57SOL    HW2  353   3.167   0.860   2.910 -0.7324  2.0650 -0.6054
   58SOL     OW  354   2.048   3.707   1.865 -0.2019  0.4296  0.0304
   58SOL    HW1  355   2.107   3.729   1.943  0.7796 -2.6757  0.2887
   58SOL    HW2  356   1.953   3.716   1.892  0.1262  0.2036  1.3467
   59SOL     OW  357   3.767   3.043   1.578 -0.3513 -0.2882  0.2271
   59SOL    HW1  358   3.773   3.058   1.480  1.9456  0.0996  0.3795
   59SOL    HW2  359   3.715   3.117   1.620 -1.4105 -0.5015 -0.6861
   60SOL     OW  360   4.528   2.839   2.039 -0.0176 -0.0807  0.2633
   60SOL    HW1  361   4.472   2.792   1.972  0.5956 -0.5342  0.0615
   60SOL    HW2  362   4.610   2.785   2.058 -1.0024 -0.8550  2.7185
   61SOL     OW  363   1.776   3.318   5.214 -0.3064  0.5478 -0.4541
   61SOL    HW1  364   1.703   3.304   5.281  0.1616  0.4085  0.0325
   61SOL    HW2  365   1.818   3.408   5.229  1.1391 -0.3014  0.7585
   62SOL     OW  366   4.878   3.830   3.527 -0.3695 -0.0381 -0.2723
   62SOL    HW1  367   4.781   3.828   3.552  0.0307 -1.3435  1.3418
   62SOL    HW2  368   4.921   3.910   3.569 -0.9346  1.1989 -1.9385
   63SOL     OW  369   4.321   5.178   3.192 -0.0782 -0.1323  0.5202
   63SOL    HW1  370   4.399   5.239   3.206 -0.0925 -0.3175  1.5194
   63SOL    HW2  371   4.355   5.086   3.172 -0.0377 -0.2152  0.9654
   64SOL     OW  372   2.821   1.330   1.999  0.2762  0.0361  0.1514
   64SOL    HW1  373   2.742   1.390   1.987 -1.3915 -2.0968 -0.1895
   64SOL    HW2  374   2.883   1.370   2.066 -1.1627  1.6999  0.5726
   65SOL     OW  375   4.639   5.759   2.974 -0.0399 -0.3985 -0.3715
   65SOL    HW1  376   4.550   5.794   2.945 -0.0418  1.9522  2.0831
   65SOL    HW2  377   4.710   5.799   2.916 -0.4031 -0.0983 -0.6189
   66SOL     OW  378   3.298   4.203   3.066  0.0679  0.1681  0.4579
   66SOL    HW1  379   3.319   4.203   3.164  0.0693  0.1727  0.4576
   66SOL    HW2  380   3.354   4.271   3.020  1.0710 -0.7787  0.2420
   67SOL     OW  381   4.255   5.670   2.762 -0.1267 -0.2536 -0.3089
   67SOL    HW1  382   4.163   5.633   2.768 -1.4794  2.6320 -1.6005
   67SOL    HW2  383   4.263   5.727   2.681  2.5426  0.3641  0.2724
   68SOL     OW  384   1.960   1.505   2.779 -0.4296 -0.0971  0.8884
   68SOL    HW1  385   1.978   1.490   2.682  0.2310  0.5358  0.8968
   68SOL    HW2  386   2.044   1.488   2.831 -0.8433 -0.6776  1.3834
   69SOL     OW  387   3.728   3.929   1.846 -0.0983  0.3980  0.1735
   69SOL    HW1  388   3.736   3.884   1.935  0.9354 -0.4350 -0.3281
   69SOL    HW2  389   3.819   3.947   1.809 -0.4612 -1.4876 -1.8108
   70SOL     OW  390   4.588   3.278   1.786  0.0666  0.3839 -0.5239
   70SOL    HW1  391   4.568   3.303   1.881 -1.2922 -0.4341 -0.5667
   70SOL    HW2  392   4.662   3.212   1.785  1.6469  2.0559 -0.2177
   71SOL     OW  393   0.852   3.370   4.529  0.1526  0.6196  0.7800
   71SOL    HW1  394   0.808   3.402   4.612 -1.1875 -1.0078  0.7480
   71SOL    HW2  395   0.947   3.345   4.550 -0.1788  0.1880  1.8335
   72SOL     OW  396   3.050   5.659   1.601  0.1342 -0.2966  0.3611
   72SOL    HW1  397   3.013   5.743   1.562  1.5476  0.1404 -0.1158
   72SOL    HW2  398   3.129   5.682   1.658  0.6767 -1.3243  0.0378
   73SOL     OW  399   4.186   5.597   1.826 -0.4792  0.1422  0.1370
   73SOL    HW1  400   4.177   5.511   1.877  0.8646  0.9556  1.8667
   73SOL    HW2  401   4.151   5.672   1.882  0.7935  1.0398 -0.2256
   74SOL     OW  402   3.957   3.773   3.484  0.2457 -0.0753  0.1937
   74SOL    HW1  403   3.900   3.854   3.496 -0.0257 -0.3045  0.4485
   74SOL    HW2  404   3.956   3.719   3.567  1.0897  0.0737  0.3174
   75SOL     OW  405   5.531   3.494   2.571  0.1253 -0.1691 -0.1936
   75SOL    HW1  406   5.578   3.526   2.653 -0.0655 -2.2504  0.7816
   75SOL    HW2  407   5.448   3.446   2.598 -0.0153 -0.7650 -1.6317
   76SOL     OW  408   5.052   4.315   3.416  0.1925 -0.3121  0.1353
   76SOL    HW1  409   4.955   4.313   3.394  0.2729  0.7110 -0.3532
   76SOL    HW2  410   5.066   4.275   3.507 -1.3215  3.9466  2.4970
   77SOL     OW  411   1.683   3.574   4.528 -0.3604 -0.2897 -0.4142
   77SOL    HW1  412   1.629   3.525   4.596  2.8754 -3.3761  0.2024
   77SOL    HW2  413   1.664   3.536   4.437  1.3671 -2.1294 -0.0671
   78SOL     OW  414   2.493   4.214   1.062  0.3170  0.7071  0.2055
   78SOL    HW1  415   2.400   4.184   1.084 -0.0392  1.6195  0.0018
   78SOL    HW2  416   2.546   4.221   1.146  1.0964 -2.5435  0.1084
   79SOL     OW  417   3.166   5.308   1.375  0.1790  0.3820  0.3567
   79SOL    HW1  418   3.216   5.372   1.434 -0.3123 -0.9028  2.2532
   79SOL    HW2  419   3.144   5.225   1.427 -0.1201 -0.9176 -1.7140
   80SOL     OW  420   2.925   1.620   1.849 -0.4367  0.0223  0.5093
   80SOL    HW1  421   2.853   1.686   1.869 -1.5904 -0.9189 -0.3158
   80SOL    HW2  422   2.970   1.646   1.764  0.6834  0.9738  1.3629
   81SOL     OW  423   4.318   1.642   3.775 -0.5486  0.3622 -0.2411
   81SOL    HW1  424   4.355   1.709   3.839 -0.3104  1.4947 -1.5337
   81SOL    HW2  425   4.370   1.557   3.782 -0.1493  0.6643  0.6181
   82SOL     OW  426   3.837   5.797   2.040  0.0321  0.1756  0.7932
   82SOL    HW1  427   3.868   5.881   2.084  1.6607 -0.1776  0.4159
   82SOL    HW2  428   3.868   5.719   2.096 -0.6627 -0.1951  0.6643
   83SOL     OW  429   2.639   4.902   1.891  0.2004  0.4428 -0.5117
   83SOL    HW1  430   2.549   4.920   1.852  0.3235  2.6881  0.0781
   83SOL    HW2  431   2.704   4.968   1.853  1.7154 -1.4037 -1.2383
   84SOL     OW  432   1.483   2.929   4.739  0.1326 -0.2590 -0.7611
   84SOL    HW1  433   1.540   2.848   4.755  2.7623  1.1817 -2.0879
   84SOL    HW2  434   1.519   3.005   4.794 -0.8603  0.5932 -1.2626
   85SOL     OW  435   4.533   2.839   3.377  0.2232  0.4259  0.6120
   85SOL    HW1  436   4.462   2.906   3.353 -0.0119  0.0258  0.1693
   85SOL    HW2  437   4.541   2.834   3.476 -0.7152  0.1216  0.6843
   86SOL     OW  438   2.359   3.549   5.217 -0.3009 -0.3949  0.2208
   86SOL    HW1  439   2.440   3.592   5.256  0.1066 -1.0123  0.0754
   86SOL    HW2  440   2.340   3.587   5.127 -0.2417 -0.1657  0.3065
   87SOL     OW  441   5.798   3.643   3.612 -0.1429 -0.1400  0.2283
   87SOL    HW1  442   5.836   3.703   3.542  0.9323  0.5583  1.3532
   87SOL    HW2  443   5.745   3.570   3.569 -2.3065  2.1030 -1.1664
   88SOL     OW  444   4.230   1.556   2.762 -0.1259 -0.7672  0.1998
   88SOL    HW1  445   4.309   1.585   2.708 -0.9154  0.1578 -0.4879
   88SOL    HW2  446   4.252   1.562   2.859  0.0825  1.1905  0.0598
   89SOL     OW  447   4.500   3.504   1.684 -0.8261  0.1454  0.3806
   89SOL    HW1  448   4.561   3.428   1.707 -2.2997 -0.8910  0.9816
   89SOL    HW2  449   4.551   3.590   1.690  0.0901 -0.5069  2.8913
   90SOL     OW  450   5.204   2.546   3.302 -0.0557 -0.3401 -0.4754
   90SOL    HW1  451   5.132   2.615   3.292 -0.6414 -0.7684  0.5714
   90SOL    HW2  452   5.167   2.456   3.280  0.0778 -0.5941  0.3051
   91SOL     OW  453   4.688   4.289   2.414 -0.2046 -0.1811 -0.6071
   91SOL    HW1  454   4.773   4.243   2.391 -1.0634 -1.5568 -1.1262
   91SOL    HW2  455   4.705   4.387   2.422  1.4975 -0.4791 -0.2892
   92SOL     OW  456   4.521   2.286   3.074 -0.5204  0.1957  0.7755
   92SOL    HW1  457   4.566   2.261   2.988 -1.3331 -1.7481  0.8644
   92SOL    HW2  458   4.577   2.252   3.150 -0.2537  1.1254  1.0045
   93SOL     OW  459   1.107   2.717   3.127  0.6366  0.3826 -0.3470
   93SOL    HW1  460   1.186   2.671   3.168  0.1572 -0.6448 -0.5283
   93SOL    HW2  461   1.114   2.712   3.027 -0.4002 -1.0931 -0.3756
   94SOL     OW  462   3.210   1.470   1.854  0.4543  0.1416  0.2728
   94SOL    HW1  463   3.156   1.476   1.938  1.9645  2.0091  1.1818
   94SOL    HW2  464   3.211   1.559   1.808  1.6838 -0.1819 -0.3825
   95SOL     OW  465   1.537   4.274   2.613  0.5090  0.0106 -0.4392
   95SOL    HW1  466   1.612   4.287   2.677  0.8020  0.1776 -0.8090
   95SOL    HW2  467   1.551   4.333   2.533 -1.0642  1.5847  0.3783
   96SOL     OW  468   4.919   2.670   3.340 -0.5943  0.7629  0.0546
   96SOL    HW1  469   4.916   2.725   3.423 -0.0704  0.5592  0.2102
   96SOL    HW2  470   4.834   2.684   3.288 -1.7749 -0.5860  1.5484
   97SOL     OW  471   2.651   3.740   4.988 -0.2968  0.0640  0.6310
   97SOL    HW1  472   2.569   3.711   4.939  0.2248 -0.3809 -0.0116
   97SOL    HW2  473   2.703   3.660   5.016  0.6910  0.3256 -0.3438
   98SOL     OW  474   4.347   3.909   1.946  0.1226  0.1400 -0.0158
   98SOL    HW1  475   4.428   3.960   1.973  0.5994 -0.6272  0.0486
   98SOL    HW2  476   4.327   3.928   1.849 -0.1414  0.9889  0.1936
   99SOL     OW  477   2.264   2.626   2.668  0.5219  0.5150  0.0231
   99SOL    HW1  478   2.241   2.537   2.627  2.8762 -0.5785  0.9112
   99SOL    HW2  479   2.225   2.699   2.611 -0.1347 -1.0368 -1.6232
  100SOL     OW  480   1.635   2.129   2.909  0.2756  0.1454 -0.0184
  100SOL    HW1  481   1.695   2.054   2.937 -0.6894  0.2599  2.7074
  100SOL    HW2  482   1.540   2.102   2.925 -0.0595  2.2645  2.1137
  101SOL     OW  483   3.155   0.941   1.951  0.6181  0.0215 -0.0364
  101SOL    HW1  484   3.058   0.948   1.977  0.7659 -0.2914  0.6236
  101SOL    HW2  485   3.186   1.029   1.915 -0.1867 -0.1639 -1.2246
  102SOL     OW  486   2.586   2.352   2.298  0.1705 -0.1481  0.4310
  102SOL    HW1  487   2.546   2.338   2.207  1.6009 -0.4603 -0.1773
  102SOL    HW2  488   2.686   2.351   2.290  0.3163 -0.3332  2.0341
  103SOL     OW  489   0.917   2.474   3.881  0.0989 -0.0303 -0.0227
  103SOL    HW1  490   0.920   2.522   3.793  0.8490 -2.5250 -1.4854
  103SOL    HW2  491   0.902   2.376   3.864  0.9657 -0.6997  2.5980
  104SOL     OW  492   4.052   3.266   3.483 -0.3926 -0.3865 -0.2404
  104SOL    HW1  493   3.962   3.304   3.457  0.1102  0.3265 -1.0276
  104SOL    HW2  494   4.116   3.281   3.407  0.5903 -0.1906  0.6068
  105SOL     OW  495   5.416   3.381   3.629 -0.0671 -0.5204 -0.2760
  105SOL    HW1  496   5.369   3.318   3.567  0.1495  0.2145 -1.2048
  105SOL    HW2  497   5.411   3.344   3.722 -0.6596 -1.4918 -0.6695
  106SOL     OW  498   4.235   4.991   2.655 -0.2483 -0.5098  0.3285
  106SOL    HW1  499   4.281   5.011   2.742  0.2060 -2.9352  0.7273
  106SOL    HW2  500   4.300   4.949   2.593 -0.5238  1.3802 -1.3316
  107SOL     OW  501   0.211   3.426   3.541  0.2593 -0.2327 -0.2206
  107SOL    HW1  502   0.139   3.492   3.565  0.8110  1.1169 -2.0950
  107SOL    HW2  503   0.297   3.475   3.526  0.9082 -1.5049 -0.7955
  108SOL     OW  504   1.787   2.282   3.557 -0.0093  0.3851 -0.3448
  108SOL    HW1  505   1.699   2.309   3.596 -0.5689 -2.4754  0.6515
  108SOL    HW2  506   1.773   2.247   3.464  0.0844  0.0712 -0.2431
  109SOL     OW  507   3.637   4.497   1.737 -0.2972 -0.1703  0.2917
  109SOL    HW1  508   3.687   4.436   1.798 -2.5509 -0.8425  1.5907
  109SOL    HW2  509   3.687   4.583   1.728  1.4985 -1.1325  0.7769
  110SOL     OW  510   2.978   3.113   5.225 -0.5584 -0.3781  0.3168
  110SOL    HW1  511   2.881   3.092   5.241 -0.0986 -1.5462  1.7834
  110SOL    HW2  512   3.034   3.041   5.266  0.9318 -0.2838 -1.4256
  111SOL     OW  513   3.038   1.516   1.604 -0.0307  0.1459  0.2340
  111SOL    HW1  514   3.128   1.506   1.560 -1.0164 -0.8691 -1.7070
  111SOL    HW2  515   3.027   1.445   1.673  0.1798 -0.5760 -0.4566
  112SOL     OW  516   2.355   1.576   2.008 -0.9662 -0.0105  0.2547
  112SOL    HW1  517   2.295   1.648   2.043 -1.0927  0.2432 -0.4653
  112SOL    HW2  518   2.351   1.497   2.068 -2.7558 -0.3651 -0.2858
  113SOL     OW  519   3.076   2.507   4.352  0.6673  0.6274 -0.6313
  113SOL    HW1  520   3.096   2.522   4.449 -1.0812 -0.2425 -0.0848
  113SOL    HW2  521   3.157   2.472   4.306  1.0500 -0.6171  0.9293
  114SOL     OW  522   4.276   2.379   3.863 -0.2547 -0.2140 -0.4899
  114SOL    HW1  523   4.196   2.438   3.855 -0.6039 -0.6061  0.0442
  114SOL    HW2  524   4.300   2.344   3.773 -1.1254 -0.6672 -0.5553
  115SOL     OW  525   4.777   3.834   4.000 -0.3294  0.1281  0.0389
  115SOL    HW1  526   4.781   3.734   3.997 -0.8994  0.0424  1.3217
  115SOL    HW2  527   4.837   3.867   4.073 -0.6393  0.6752  0.0547
  116SOL     OW  528   3.348   1.262   3.292 -0.5643 -0.1809 -0.8611
  116SOL    HW1  529   3.356   1.276   3.391  1.1552 -1.7258 -0.7337
  116SOL    HW2  530   3.252   1.270   3.266 -1.1879 -0.6480  1.0953
  117SOL     OW  531   5.546   3.237   3.197  0.1004 -0.3572 -0.0995
  117SOL    HW1  532   5.449   3.248   3.174  0.2751 -1.6414 -1.6073
  117SOL    HW2  533   5.555   3.165   3.265  0.1200 -1.9242 -1.6811
  118SOL     OW  534   2.753   3.616   4.317 -0.0142 -0.2381  0.1634
  118SOL    HW1  535   2.769   3.714   4.306 -0.4117 -0.0511  1.1939
  118SOL    HW2  536   2.658   3.595   4.295  0.3864 -0.6159 -1.3364
  119SOL     OW  537   5.436   3.841   3.048  0.1863 -0.1827 -0.3067
  119SOL    HW1  538   5.470   3.931   3.023 -1.6011 -0.0558 -2.6845
  119SOL    HW2  539   5.338   3.847   3.067  0.5791 -1.1529  2.5532
  120SOL     OW  540   2.161   4.431   3.042 -0.0144  0.0994  0.1436
  120SOL    HW1  541   2.083   4.492   3.025 -0.2467 -0.5599 -1.3539
  120SOL    HW2  542   2.221   4.473   3.109 -0.7868  1.4171  0.0584
  121SOL     OW  543   2.067   2.769   2.548 -0.4639 -0.4591  0.0170
  121SOL    HW1  544   2.094   2.830   2.623  0.1603 -0.2090 -0.4025
  121SOL    HW2  545   1.992   2.712   2.578  0.6950 -1.3591  1.3316
  122SOL     OW  546   2.801   3.716   2.316 -0.7214 -0.1330 -0.0202
  122SOL    HW1  547   2.813   3.764   2.229 -0.8137  1.4199  0.7890
  122SOL    HW2  548   2.885   3.723   2.369 -0.9293 -0.3753  0.3433
  123SOL     OW  549   4.026   3.524   3.735 -0.2965  0.1607  0.4493
  123SOL    HW1  550   4.091   3.451   3.717  0.2165  0.6928  0.0869
  123SOL    HW2  551   4.055   3.574   3.817 -1.4749 -0.9599  1.5894
  124SOL     OW  552   4.190   3.735   2.407 -0.1187  0.5638  0.3755
  124SOL    HW1  553   4.176   3.660   2.343 -0.8273  1.6266 -0.7541
  124SOL    HW2  554   4.114   3.800   2.399 -0.3351  0.6353  2.4430
  125SOL     OW  555   4.024   5.541   2.744  0.0456 -0.2506 -0.4718
  125SOL    HW1  556   3.945   5.593   2.776  0.0818  0.2947 -1.2348
  125SOL    HW2  557   4.039   5.462   2.804 -0.1415  0.5001  0.5719
  126SOL     OW  558   4.824   2.323   3.619  0.4641 -0.0313 -0.7286
  126SOL    HW1  559   4.798   2.406   3.668  1.6378  0.2069 -0.4901
  126SOL    HW2  560   4.835   2.344   3.522  1.2529  0.2060 -0.5888
  127SOL     OW  561   3.842   1.614   3.941 -0.4101  0.3724 -0.2357
  127SOL    HW1  562   3.897   1.645   3.864  0.4690  0.3795  0.3758
  127SOL    HW2  563   3.901   1.568   4.007 -0.3790  3.5447  2.1988
  128SOL     OW  564   1.924   4.070   1.889 -0.5519  0.4795  0.5970
  128SOL    HW1  565   1.961   4.021   1.811  1.3171  2.1795  0.3405
  128SOL    HW2  566   1.992   4.072   1.962 -1.6355  0.3667  1.6513
  129SOL     OW  567   1.899   3.294   2.667 -0.1044 -0.1159  0.4733
  129SOL    HW1  568   1.991   3.254   2.673  0.2582  0.6557  0.2612
  129SOL    HW2  569   1.900   3.385   2.710 -0.8792 -0.2691  0.8425
  130SOL     OW  570   4.254   0.130   3.124 -0.3659  0.1968 -0.8599
  130SOL    HW1  571   4.303   0.086   3.049 -0.2001 -0.5319 -0.3365
  130SOL    HW2  572   4.156   0.112   3.115 -0.0906 -2.6186  0.7947
  131SOL     OW  573   5.008   2.855   3.963 -0.2162 -0.6159  0.1469
  131SOL    HW1  574   4.932   2.795   3.988 -2.4716  2.2025  0.4579
  131SOL    HW2  575   5.061   2.877   4.045 -1.8343  0.9540  0.8349
  132SOL     OW  576   4.416   2.704   3.873 -0.2236  0.0898 -0.4335
  132SOL    HW1  577   4.371   2.774   3.928 -0.6690  0.6619 -1.4970
  132SOL    HW2  578   4.388   2.613   3.905  0.3454  0.3686  0.9469
  133SOL     OW  579   2.680   3.962   1.336 -0.7677  0.1348  0.2257
  133SOL    HW1  580   2.688   3.899   1.258 -0.4704 -0.8638  1.0463
  133SOL    HW2  581   2.655   3.910   1.417  0.2987  0.9618  1.1020
  134SOL     OW  582   1.841   1.899   2.922 -0.2160 -0.0762 -0.7629
  134SOL    HW1  583   1.916   1.867   2.864  0.1587 -2.2776  0.8128
  134SOL    HW2  584   1.876   1.918   3.013 -1.2568  0.7914 -0.5305
  135SOL     OW  585   4.093   4.031   2.740  0.3603 -0.5436 -0.2317
  135SOL    HW1  586   4.035   4.108   2.768  1.0366  0.0753 -0.5161
  135SOL    HW2  587   4.055   3.946   2.778 -0.0901 -0.0117  0.5344
  136SOL     OW  588   4.979   3.571   2.867 -0.3322 -0.2267  0.0820
  136SOL    HW1  589   5.004   3.551   2.962  0.4561 -2.7447 -0.5998
  136SOL    HW2  590   4.886   3.538   2.850  0.1229 -1.2638 -0.4383
  137SOL     OW  591   4.252   1.341   3.145  0.3659  0.2556 -0.7731
  137SOL    HW1  592   4.337   1.292   3.163  0.1981 -0.4368 -1.7700
  137SOL    HW2  593   4.186   1.278   3.104 -1.1084  0.4300  1.1746
  138SOL     OW  594   2.453   3.583   4.874  0.3153 -0.0006 -0.4373
  138SOL    HW1  595   2.368   3.624   4.909 -1.1664 -2.1849 -1.2157
  138SOL    HW2  596   2.484   3.513   4.938  0.7259 -0.1800 -0.8304
  139SOL     OW  597   2.602   2.103   4.351 -0.2019  0.2182  0.0069
  139SOL    HW1  598   2.605   2.198   4.320  3.1022  0.1313 -0.2304
  139SOL    HW2  599   2.589   2.043   4.273  0.7743  0.3595 -0.2767
  140SOL     OW  600   0.155   3.464   4.352  0.2660 -0.0402  0.0293
  140SOL    HW1  601   0.125   3.515   4.433 -0.1401  1.7027 -1.1492
  140SOL    HW2  602   0.077   3.417   4.312  0.6911 -1.8730  1.2642
  141SOL     OW  603   2.294   3.179   2.387  0.0558  0.6283  0.1604
  141SOL    HW1  604   2.313   3.242   2.311 -0.6426 -0.1835 -0.7138
  141SOL    HW2  605   2.378   3.128   2.409  0.9866  2.6958  1.7280
  142SOL     OW  606   2.372   3.204   2.089  0.3743  0.0630 -0.3292
  142SOL    HW1  607   2.345   3.166   2.001  1.0485 -0.3842 -0.3500
  142SOL    HW2  608   2.403   3.129   2.149  0.7194  0.4541 -0.0108
  143SOL     OW  609   2.889   2.479   0.685 -0.1955  0.0718 -0.3222
  143SOL    HW1  610   2.825   2.485   0.608  2.7759  1.8628 -2.8524
  143SOL    HW2  611   2.888   2.565   0.736  0.8222  0.4797 -0.9633
  144SOL     OW  612   2.789   3.960   4.864  0.7105 -0.1954  0.2599
  144SOL    HW1  613   2.734   3.883   4.897  0.9843 -0.8444 -0.7581
  144SOL    HW2  614   2.786   4.034   4.931 -1.9739  0.0666 -0.0403
  145SOL     OW  615   3.966   0.535   2.689  0.5418  0.0987  0.1771
  145SOL    HW1  616   3.980   0.633   2.705 -0.2938  0.1254  0.8083
  145SOL    HW2  617   3.919   0.523   2.602 -1.4660  0.4346  1.1626
  146SOL     OW  618   3.562   0.776   2.249  0.0781 -0.4898 -0.1044
  146SOL    HW1  619   3.481   0.809   2.200  0.8747  0.1151 -1.0429
  146SOL    HW2  620   3.584   0.684   2.217 -1.7593 -1.7968  2.0507
  147SOL     OW  621   5.493   2.558   3.299 -0.1488  0.2311  0.1870
  147SOL    HW1  622   5.539   2.496   3.236 -1.0923  0.1244 -0.4043
  147SOL    HW2  623   5.397   2.532   3.308 -0.0292  0.1904  1.7417
  148SOL     OW  624   0.879   4.142   2.762  0.2714  0.2898 -0.0923
  148SOL    HW1  625   0.800   4.118   2.819 -0.4286  0.4057 -0.9957
  148SOL    HW2  626   0.899   4.066   2.701  0.8013  0.3031  0.0608
  149SOL     OW  627   3.052   0.550   1.745  0.6725  0.2494 -0.2234
  149SOL    HW1  628   3.072   0.648   1.740  0.5516  0.2554 -0.6320
  149SOL    HW2  629   3.134   0.501   1.773  0.8279  0.4320 -0.3609
  150SOL     OW  630   3.203   2.077   1.606 -0.7563 -0.0893 -0.2173
  150SOL    HW1  631   3.178   2.089   1.510 -2.3819  1.6533  0.3656
  150SOL    HW2  632   3.264   2.152   1.633 -0.1915 -0.6504  0.0767
  151SOL     OW  633   4.786   3.314   3.712  0.0695 -0.2339  0.3672
  151SOL    HW1  634   4.874   3.267   3.703  1.3949  2.1769 -0.0643
  151SOL    HW2  635   4.728   3.291   3.634 -0.0329 -2.4522  1.0450
  152SOL     OW  636   1.952   5.039   2.071 -0.1595  0.4730 -0.3994
  152SOL    HW1  637   1.906   5.126   2.092  0.1026  0.7644 -1.0053
  152SOL    HW2  638   1.912   4.967   2.127 -0.1614  1.0417  0.3538
  153SOL     OW  639   3.031   2.857   3.949  0.3658 -0.1818 -0.0490
  153SOL    HW1  640   3.045   2.938   4.005  0.6386  0.1953 -0.6435
  153SOL    HW2  641   2.946   2.866   3.898  0.8196  0.1379 -0.7720
  154SOL     OW  642   3.954   3.433   4.289  0.1736  0.2438 -0.0437
  154SOL    HW1  643   3.921   3.521   4.255 -1.2631 -0.0159  0.5857
  154SOL    HW2  644   3.875   3.376   4.314  1.0618 -1.2891 -0.6020
  155SOL     OW  645   1.586   2.288   3.194  0.2451 -0.3564 -0.7867
  155SOL    HW1  646   1.514   2.255   3.255  0.5209 -0.8335 -0.7164
  155SOL    HW2  647   1.669   2.233   3.207  1.0267  0.9666  0.0242
  156SOL     OW  648   1.769   3.392   4.070  0.3544  0.9876 -0.2191
  156SOL    HW1  649   1.723   3.310   4.105  2.1550  0.0812  0.1389
  156SOL    HW2  650   1.746   3.404   3.974  0.7244 -0.4371 -0.5076
  157SOL     OW  651   2.998   2.828   5.175 -0.2322 -0.2491 -0.6004
  157SOL    HW1  652   3.007   2.737   5.136  0.0210  0.2014 -1.6354
  157SOL    HW2  653   2.978   2.893   5.102 -2.7572  0.2035  0.4049
  158SOL     OW  654   3.110   4.646   1.359  0.7845 -0.5455 -0.3276
  158SOL    HW1  655   3.063   4.653   1.447  1.7095 -0.1272  0.1488
  158SOL    HW2  656   3.044   4.661   1.286  0.4448  1.7035  0.3509
  159SOL     OW  657   2.704   4.477   3.083 -0.5505 -0.5932 -0.2474
  159SOL    HW1  658   2.638   4.420   3.033 -2.2861  1.3576 -0.2855
  159SOL    HW2  659   2.794   4.467   3.041 -1.4011 -1.0871 -2.0507
  160SOL     OW  660   3.044   4.364   1.583  0.3598 -0.1160  0.1990
  160SOL    HW1  661   3.014   4.320   1.498  0.1378  1.5871 -0.6568
  160SOL    HW2  662   3.140   4.342   1.599  0.5305 -0.1107 -0.7425
  161SOL     OW  663   0.377   3.226   4.292  0.0768 -0.3184 -0.8551
  161SOL    HW1  664   0.430   3.224   4.377  1.5473  0.0004 -1.7268
  161SOL    HW2  665   0.322   3.309   4.290  2.3017  1.2331 -1.4850
  162SOL     OW  666   1.302   3.950   3.277 -0.5506  0.3332 -0.3679
  162SOL    HW1  667   1.363   3.912   3.207 -0.7876 -0.1364 -0.3207
  162SOL    HW2  668   1.357   4.005   3.340 -0.4069  1.1602 -1.1908
  163SOL     OW  669   1.793   2.083   3.315  0.3925 -0.6351 -0.1904
  163SOL    HW1  670   1.785   2.005   3.377  1.1144 -0.4879  0.0885
  163SOL    HW2  671   1.851   2.057   3.237  1.1257 -0.1931  0.2015
  164SOL     OW  672   3.297   2.767   3.232  0.6396 -0.0103  0.0922
  164SOL    HW1  673   3.292   2.682   3.284  1.2735 -0.6654 -0.8748
  164SOL    HW2  674   3.393   2.786   3.210  0.2769 -0.7283 -2.3606
  165SOL     OW  675   1.580   4.517   2.933 -0.3042 -0.1585  0.1056
  165SOL    HW1  676   1.536   4.510   3.023  0.4756  0.3344  0.5369
  165SOL    HW2  677   1.510   4.519   2.862 -0.9895  0.7153  0.7800
  166SOL     OW  678   3.588   3.758   1.601 -0.0480  0.1672  0.2688
  166SOL    HW1  679   3.497   3.735   1.634  0.4025 -2.4208 -0.1041
  166SOL    HW2  680   3.649   3.774   1.679 -0.4296  0.2619  0.5498
  167SOL     OW  681   4.748   3.470   4.572  0.2585  0.5012  0.4465
  167SOL    HW1  682   4.686   3.549   4.576 -0.8288 -0.3258  0.6279
  167SOL    HW2  683   4.775   3.454   4.478 -1.1371 -0.0897  0.1163
  168SOL     OW  684   2.124   2.936   2.748  0.2820  0.7962 -0.2247
  168SOL    HW1  685   2.033   2.922   2.788  0.4133 -1.9632 -0.6755
  168SOL    HW2  686   2.193   2.913   2.817  0.5399 -0.5846 -0.9028
  169SOL     OW  687   3.104   3.853   4.891 -0.4511  0.3061 -0.1906
  169SOL    HW1  688   3.197   3.841   4.856 -0.1920  0.4121  0.4509
  169SOL    HW2  689   3.039   3.829   4.819  0.0675 -0.1427 -0.5203
  170SOL     OW  690   2.026   4.644   3.367 -0.1038 -0.1003  0.6156
  170SOL    HW1  691   2.112   4.593   3.370 -0.9265 -1.4889  1.8312
  170SOL    HW2  692   1.950   4.580   3.355 -1.0493  1.0351  0.3237
  171SOL     OW  693   2.778   2.417   1.373 -0.8738  0.1875  0.0794
  171SOL    HW1  694   2.705   2.485   1.378 -0.3181  0.7295  1.2500
  171SOL    HW2  695   2.819   2.420   1.282 -0.2877  2.0881  0.3466
  172SOL     OW  696   2.305   1.264   2.629  0.0425 -0.4082 -0.3161
  172SOL    HW1  697   2.359   1.182   2.644 -0.4087 -0.5345  0.7800
  172SOL    HW2  698   2.310   1.321   2.711  1.9137  1.6122 -1.7234
  173SOL     OW  699   1.481   3.893   3.082  0.2937  0.1614 -0.1178
  173SOL    HW1  700   1.526   3.813   3.123  0.6039  0.2336 -0.3150
  173SOL    HW2  701   1.508   3.900   2.986  0.1869  0.4450 -0.1268
  174SOL     OW  702   2.528   1.262   2.938  0.1110  0.0511  0.5362
  174SOL    HW1  703   2.551   1.336   3.001 -0.3897 -0.4050  1.2712
  174SOL    HW2  704   2.593   1.261   2.863 -0.2419  1.6394  0.1752
  175SOL     OW  705   4.427   1.681   3.320  0.0623  0.3349  0.0359
  175SOL    HW1  706   4.464   1.699   3.228 -0.1167  0.0448 -0.0951
  175SOL    HW2  707   4.372   1.759   3.349  1.6545  1.2442  0.6873
  176SOL     OW  708   4.130   4.851   2.370 -0.7801  0.6433 -0.9270
  176SOL    HW1  709   4.125   4.769   2.313  0.8446  0.1020 -0.3388
  176SOL    HW2  710   4.218   4.854   2.416 -0.3089  3.3336 -1.8369
  177SOL     OW  711   2.709   1.183   2.489 -0.0060 -0.1483 -0.5346
  177SOL    HW1  712   2.706   1.103   2.429 -0.0594 -0.8541  0.3847
  177SOL    HW2  713   2.803   1.215   2.496 -0.2903  1.4179 -2.8530
  178SOL     OW  714   5.755   2.354   4.107 -0.2641 -0.3432  0.0408
  178SOL    HW1  715   5.816   2.279   4.129 -0.3381 -0.3205  0.3371
  178SOL    HW2  716   5.695   2.328   4.031 -0.3399 -0.6112  0.1929
  179SOL     OW  717   2.177   4.085   2.013  0.1024 -0.2791 -0.1913
  179SOL    HW1  718   2.169   4.159   2.080 -0.7137 -1.2830  0.8595
  179SOL    HW2  719   2.262   4.096   1.962  1.6166 -0.4094  2.1640
  180SOL     OW  720   3.428   2.694   4.562  0.0498  1.1315  0.7179
  180SOL    HW1  721   3.436   2.697   4.661 -0.9056  1.0422  0.8104
  180SOL    HW2  722   3.331   2.702   4.537  0.3971  2.9184 -0.2726
  181SOL     OW  723   3.697   1.576   1.761  0.2637  0.0606  0.5792
  181SOL    HW1  724   3.636   1.534   1.829 -0.9256  0.2412 -0.3423
  181SOL    HW2  725   3.791   1.575   1.796 -0.0624 -1.3745  1.5034
  182SOL     OW  726   3.086   2.611   2.468  0.0361  0.1155 -0.4166
  182SOL    HW1  727   3.126   2.695   2.506 -1.2516  0.1082  1.0222
  182SOL    HW2  728   3.153   2.537   2.474  0.0215  0.2177  1.5121
  183SOL     OW  729   2.247   2.606   4.747 -0.7493 -0.4006 -0.0088
  183SOL    HW1  730   2.175   2.668   4.714 -0.2645  1.2824  1.9218
  183SOL    HW2  731   2.314   2.593   4.674 -1.3580  0.6246 -0.7858
  184SOL     OW  732   3.003   3.352   4.615 -0.0921  0.8565 -0.2429
  184SOL    HW1  733   3.064   3.415   4.567  0.3220  0.6315 -0.0184
  184SOL    HW2  734   3.029   3.349   4.712  0.7288 -0.6059 -0.4659
  185SOL     OW  735   3.767   3.128   1.301 -0.3480  0.0116  0.1707
  185SOL    HW1  736   3.766   3.225   1.277  1.4704  0.3961  1.5263
  185SOL    HW2  737   3.690   3.083   1.255 -0.4619  1.8113 -1.5415
  186SOL     OW  738   1.773   4.460   3.276  0.0699  0.6223 -0.1146
  186SOL    HW1  739   1.698   4.519   3.246  0.7593  0.5789 -2.0811
  186SOL    HW2  740   1.758   4.368   3.239  1.2478  0.7001 -0.8290
  187SOL     OW  741   3.109   2.521   1.275  0.2911  0.0767  0.1611
  187SOL    HW1  742   3.164   2.596   1.238  0.1123  0.8934  1.4812
  187SOL    HW2  743   3.016   2.529   1.239 -0.3152  1.8330  1.9511
  188SOL     OW  744   2.948   1.274   1.748  0.2976  0.4381  0.1498
  188SOL    HW1  745   2.899   1.194   1.712  0.6877  0.2765 -0.0278
  188SOL    HW2  746   2.927   1.284   1.845 -0.3130  0.5396  0.0114
  189SOL     OW  747   2.393   2.230   3.754 -0.3482 -0.3475 -0.4348
  189SOL    HW1  748   2.358   2.323   3.749  1.1618  0.1849 -2.2537
  189SOL    HW2  749   2.339   2.171   3.693  0.0148 -0.2075 -0.8879
  190SOL     OW  750   3.234   1.224   3.011 -0.2176 -0.5325  0.2561
  190SOL    HW1  751   3.326   1.252   3.039  0.6333 -0.0533 -2.6965
  190SOL    HW2  752   3.234   1.126   2.993 -0.3162 -0.5462  0.3296
  191SOL     OW  753   4.868   2.869   3.531 -0.0701 -0.2147 -0.0275
  191SOL    HW1  754   4.790   2.826   3.577  0.5033 -0.9400  0.2943
  191SOL    HW2  755   4.949   2.859   3.589  0.2564  0.5626 -0.3408
  192SOL     OW  756   5.341   3.519   2.954 -0.0758 -0.0359 -0.1039
  192SOL    HW1  757   5.254   3.523   3.003  0.1278  1.5497  0.2019
  192SOL    HW2  758   5.402   3.590   2.991  2.5371 -3.0231  1.8348
  193SOL     OW  759   5.114   3.495   2.609  0.2637 -0.7626  0.1294
  193SOL    HW1  760   5.200   3.467   2.652 -0.2519 -2.7811 -0.0519
  193SOL    HW2  761   5.044   3.507   2.679  0.7377  1.3067  0.3235
  194SOL     OW  762   4.255   0.056   2.555  0.0536 -0.2609 -0.2953
  194SOL    HW1  763   4.294   0.141   2.592  0.5508 -0.9147  0.7141
  194SOL    HW2  764   4.315   0.022   2.482  1.3086 -1.1401  1.0944
  195SOL     OW  765   3.125   5.458   2.487  0.0667  0.1600 -0.1527
  195SOL    HW1  766   3.176   5.384   2.531 -1.6448 -1.9134 -1.4412
  195SOL    HW2  767   3.182   5.501   2.417  1.5117  0.9658  1.4432
  196SOL     OW  768   4.077   3.397   1.618  0.2202  0.3512 -0.1869
  196SOL    HW1  769   4.062   3.495   1.606  2.5722  0.6652 -1.1031
  196SOL    HW2  770   4.168   3.382   1.656  0.2287 -1.5023 -0.8118
  197SOL     OW  771   2.486   0.959   3.677  0.0170 -0.1926  0.4550
  197SOL    HW1  772   2.452   0.941   3.585 -1.0006 -1.5288  1.0504
  197SOL    HW2  773   2.584   0.979   3.673 -0.1385  0.4088 -0.9660
  198SOL     OW  774   1.750   3.145   4.446 -0.1338 -0.2170 -0.6054
  198SOL    HW1  775   1.668   3.163   4.500  0.5155  1.0931 -0.0179
  198SOL    HW2  776   1.829   3.138   4.507  0.2876 -0.9350 -1.2110
  199SOL     OW  777   4.996   3.142   3.643  0.5632 -0.7499 -0.2648
  199SOL    HW1  778   4.949   3.056   3.626 -3.2103  1.1089 -0.2365
  199SOL    HW2  779   5.053   3.133   3.724 -2.1857 -2.4616  1.6325
  200SOL     OW  780   4.957   3.989   2.665 -0.3506  0.2647  0.5982
  200SOL    HW1  781   4.955   3.942   2.753 -0.7217 -1.9322 -0.5011
  200SOL    HW2  782   4.864   4.010   2.636 -0.3230 -0.2172  0.1453
  201SOL     OW  783   5.550   2.698   4.365 -0.4123 -1.1658  0.1278
  201SOL    HW1  784   5.636   2.740   4.335 -0.8297 -0.7512 -0.5019
  201SOL    HW2  785   5.563   2.659   4.456  0.8090 -2.2036 -0.4549
  202SOL     OW  786   2.593   2.387   2.947  0.0935  0.4235 -0.1714
  202SOL    HW1  787   2.611   2.290   2.928 -1.0528 -0.3188  2.1615
  202SOL    HW2  788   2.552   2.429   2.866  1.3477 -0.8006 -1.4997
  203SOL     OW  789   3.040   3.704   5.108 -0.5838  0.2805  0.0782
  203SOL    HW1  790   3.112   3.635   5.114 -2.1762 -1.7915 -2.2698
  203SOL    HW2  791   3.067   3.774   5.043  0.8465  1.7319  2.1247
  204SOL     OW  792   4.108   3.394   1.978  0.0757 -0.3982  0.0507
  204SOL    HW1  793   4.025   3.342   1.961 -0.8312  1.0224 -0.0711
  204SOL    HW2  794   4.181   3.359   1.919 -0.5346 -1.4074 -0.1302
  205SOL     OW  795   2.687   2.512   0.507 -0.3145 -0.9091  0.2703
  205SOL    HW1  796   2.645   2.601   0.522 -0.3321 -0.7639 -0.6043
  205SOL    HW2  797   2.622   2.453   0.458  0.7380 -0.4191 -1.8254
  206SOL     OW  798   1.691   3.738   2.204 -0.0875 -0.4156 -0.0017
  206SOL    HW1  799   1.626   3.790   2.260  1.3423  0.3294  1.0291
  206SOL    HW2  800   1.719   3.794   2.126 -0.1851 -0.4723 -0.0767
  207SOL     OW  801   3.122   0.268   3.189  0.3672 -0.6502 -0.7009
  207SOL    HW1  802   3.027   0.286   3.212  0.8619 -1.6998  2.7118
  207SOL    HW2  803   3.171   0.356   3.181  0.0289 -0.0740  2.3773
  208SOL     OW  804   2.542   3.419   2.069 -0.4994 -0.1132  0.4326
  208SOL    HW1  805   2.472   3.348   2.076  0.7686 -1.6897 -1.3650
  208SOL    HW2  806   2.566   3.452   2.160 -1.7496 -1.3982  1.2607
  209SOL     OW  807   2.405   4.221   1.903 -0.1491 -0.0474 -0.3144
  209SOL    HW1  808   2.382   4.280   1.826 -0.4926  1.0909  0.6378
  209SOL    HW2  809   2.489   4.171   1.882 -0.1726  0.3251 -1.3713
  210SOL     OW  810   2.309   3.650   4.531 -0.2961 -0.0880 -0.3690
  210SOL    HW1  811   2.282   3.579   4.466 -0.8639 -0.4655  0.2762
  210SOL    HW2  812   2.394   3.693   4.499 -1.2369  0.6094 -2.0359
  211SOL     OW  813   1.133   2.831   4.574  0.3784 -0.4961  0.0090
  211SOL    HW1  814   1.034   2.822   4.581  0.2991  0.0001 -0.4093
  211SOL    HW2  815   1.170   2.850   4.665  0.2212 -1.7922  0.3592
  212SOL     OW  816   4.548   1.582   2.858 -0.0942 -0.3165 -0.1872
  212SOL    HW1  817   4.519   1.601   2.765  2.2971  1.5618 -0.6338
  212SOL    HW2  818   4.588   1.490   2.862 -1.3049 -0.8961 -0.6639
  213SOL     OW  819   3.501   2.010   2.029  0.1667  0.1451  0.0092
  213SOL    HW1  820   3.558   2.083   2.064 -2.3272  1.8444  0.7757
  213SOL    HW2  821   3.554   1.954   1.965  2.6423  1.5168  0.7643
  214SOL     OW  822   3.245   2.845   3.708  0.5326 -0.1465 -0.3982
  214SOL    HW1  823   3.163   2.861   3.762  0.6698  0.2024 -0.2895
  214SOL    HW2  824   3.222   2.852   3.611  0.4438  0.0020 -0.3668
  215SOL     OW  825   1.922   1.398   3.840 -0.1249 -0.6890  0.2268
  215SOL    HW1  826   1.882   1.437   3.923  0.0564 -0.3625  0.1596
  215SOL    HW2  827   1.977   1.319   3.865 -1.7074 -1.8545  0.2168
  216SOL     OW  828   5.111   3.732   3.836  0.0393  0.1084 -0.1457
  216SOL    HW1  829   5.195   3.762   3.790 -0.1684 -0.4170 -0.8951
  216SOL    HW2  830   5.061   3.670   3.775 -0.5122 -0.1880  0.5923
  217SOL     OW  831   1.911   3.648   3.758  0.0301  0.1187 -0.1698
  217SOL    HW1  832   1.820   3.611   3.776 -0.3813  0.1003 -2.0767
  217SOL    HW2  833   1.903   3.725   3.695  1.4711 -1.4791 -2.4941
  218SOL     OW  834   3.155   5.326   2.947 -0.5135  0.2535 -0.4200
  218SOL    HW1  835   3.171   5.424   2.937  2.8920 -0.2682 -1.5043
  218SOL    HW2  836   3.109   5.292   2.865 -1.5420  0.8616 -0.1183
  219SOL     OW  837   1.379   2.352   2.938  0.8343  0.0854  0.5082
  219SOL    HW1  838   1.280   2.361   2.931  0.7686 -1.1264 -0.4799
  219SOL    HW2  839   1.400   2.273   2.996  1.2556  0.9846  1.6249
  220SOL     OW  840   2.721   5.259   1.544 -0.8825 -0.0136  0.1165
  220SOL    HW1  841   2.795   5.325   1.535 -1.4190  0.6624  0.5415
  220SOL    HW2  842   2.710   5.210   1.458  0.8782 -1.0217  0.4321
  221SOL     OW  843   2.435   4.680   1.677 -0.0220  0.3888  0.1540
  221SOL    HW1  844   2.412   4.777   1.684  0.0041  0.3022  1.8567
  221SOL    HW2  845   2.534   4.669   1.669  0.0168  0.4905  0.4837
  222SOL     OW  846   1.771   2.616   3.594 -0.2025 -0.9551 -0.1796
  222SOL    HW1  847   1.804   2.526   3.624 -0.7806 -0.9655  0.4482
  222SOL    HW2  848   1.774   2.620   3.494  0.8540 -1.2701 -0.1711
  223SOL     OW  849   4.507   3.076   3.675  0.1999  0.2379  0.1028
  223SOL    HW1  850   4.525   3.132   3.594 -0.1450 -0.6618 -0.6236
  223SOL    HW2  851   4.431   3.115   3.726 -0.5677  0.0064 -0.8337
  224SOL     OW  852   3.571   3.991   1.460 -0.5824  0.6152  0.4948
  224SOL    HW1  853   3.654   4.047   1.466  0.0586  0.0896 -1.9638
  224SOL    HW2  854   3.592   3.899   1.491  0.6375 -0.2334 -2.4153
  225SOL     OW  855   4.372   3.016   3.259 -0.2355 -0.2794 -0.3338
  225SOL    HW1  856   4.425   3.016   3.174 -1.6681 -1.0481 -1.2755
  225SOL    HW2  857   4.342   3.109   3.279 -1.2944 -0.2980 -1.6407
  226SOL     OW  858   1.466   3.915   1.674 -0.0087 -0.4301  0.1025
  226SOL    HW1  859   1.482   4.009   1.642  0.7594 -0.4954  0.2761
  226SOL    HW2  860   1.407   3.918   1.754  0.1468 -0.0793  0.2070
  227SOL     OW  861   2.634   0.941   2.807 -0.5504  0.0612 -0.0532
  227SOL    HW1  862   2.697   1.018   2.811 -0.8721  0.2896  1.8281
  227SOL    HW2  863   2.681   0.860   2.772  0.4378  0.5309  0.1804
  228SOL     OW  864   3.696   3.270   1.675  0.2400  0.7128  0.2129
  228SOL    HW1  865   3.724   3.365   1.691  1.0260  0.9211 -1.9751
  228SOL    HW2  866   3.597   3.266   1.660  0.2731  1.2823 -0.1851
  229SOL     OW  867   5.358   3.247   3.884  0.0813  0.3751 -0.2218
  229SOL    HW1  868   5.280   3.185   3.876  0.1892 -0.1770  2.2064
  229SOL    HW2  869   5.443   3.193   3.881  0.3337  0.7946 -1.1940
  230SOL     OW  870   1.337   4.322   2.826 -0.3157 -0.6887  0.2078
  230SOL    HW1  871   1.240   4.329   2.801 -0.1023 -0.1866 -0.5164
  230SOL    HW2  872   1.389   4.285   2.749 -0.3154 -3.7605  1.5485
  231SOL     OW  873   2.954   0.115   2.858 -0.0009  0.5492  0.1986
  231SOL    HW1  874   2.970   0.055   2.779  0.1829  0.9771 -0.0869
  231SOL    HW2  875   3.014   0.086   2.933  1.4520  1.5252 -0.5384
  232SOL     OW  876   4.540   3.882   2.879 -0.1797  0.4854  0.1141
  232SOL    HW1  877   4.615   3.908   2.940 -0.1140  0.0583  0.2183
  232SOL    HW2  878   4.568   3.803   2.824 -0.9211 -0.3655  0.9114
  233SOL     OW  879   3.034   2.935   0.784  0.1622  0.3381  0.2909
  233SOL    HW1  880   3.127   2.916   0.817  0.2467  1.0762  0.5045
  233SOL    HW2  881   3.009   3.029   0.809 -0.2263  0.5189 -0.7253
  234SOL     OW  882   1.936   3.135   2.038  0.0215 -0.2698 -0.0990
  234SOL    HW1  883   2.001   3.111   1.966 -0.3849 -1.1165 -0.1971
  234SOL    HW2  884   1.985   3.145   2.125  0.5999  1.3035 -0.5583
  235SOL     OW  885   0.776   3.859   3.510  0.0671 -0.1934  0.3256
  235SOL    HW1  886   0.703   3.816   3.563 -0.8443  0.5273 -0.3259
  235SOL    HW2  887   0.746   3.868   3.415  0.9057  0.3448  0.1072
  236SOL     OW  888   5.677   3.479   2.824  0.2070 -0.5840 -0.0669
  236SOL    HW1  889   5.699   3.399   2.879  2.1184 -0.7989 -1.0360
  236SOL    HW2  890   5.700   3.562   2.875  1.6019 -0.7749 -0.3270
  237SOL     OW  891   3.078   3.243   0.858  0.3584 -0.2029 -0.3954
  237SOL    HW1  892   3.115   3.259   0.767 -1.0703  0.2820 -0.9307
  237SOL    HW2  893   3.063   3.331   0.904  1.2533 -0.4501  0.3940
  238SOL     OW  894   3.972   5.062   2.302 -0.5244  0.1420  0.4868
  238SOL    HW1  895   3.903   5.004   2.257  1.5011 -0.8903 -1.4899
  238SOL    HW2  896   4.039   5.003   2.347 -0.1876  1.0813  1.2372
  239SOL     OW  897   5.051   3.036   2.508  0.2556  0.0323  0.1527
  239SOL    HW1  898   5.039   3.110   2.442  1.3644  0.7537  0.7218
  239SOL    HW2  899   5.143   3.041   2.546  2.1899 -4.3149 -3.0541
  240SOL     OW  900   2.201   1.763   2.133  0.1624  0.3260  0.5629
  240SOL    HW1  901   2.210   1.729   2.227  0.2287 -0.3561  0.3114
  240SOL    HW2  902   2.132   1.836   2.132 -1.8000 -1.4234  0.7073
  241SOL     OW  903   4.470   4.952   3.163  0.3034 -0.6126  0.1258
  241SOL    HW1  904   4.568   4.946   3.146  0.0797 -2.0860 -0.9315
  241SOL    HW2  905   4.445   4.884   3.232  0.2200  0.7805  1.5035
  242SOL     OW  906   5.645   2.424   2.886  0.8605 -0.1526 -0.3004
  242SOL    HW1  907   5.678   2.506   2.839 -1.6191 -0.1254 -2.2221
  242SOL    HW2  908   5.545   2.423   2.885  0.6724 -1.1239  3.5143
  243SOL     OW  909   2.941   3.109   4.911  0.4793 -0.1765 -0.3013
  243SOL    HW1  910   2.997   3.184   4.876  1.0834 -0.1153  0.7559
  243SOL    HW2  911   2.929   3.121   5.009 -1.7491  0.0295 -0.5499
  244SOL     OW  912   4.767   1.883   3.252  0.9634 -0.8197  0.2228
  244SOL    HW1  913   4.721   1.971   3.253  1.6436 -0.4553  0.5421
  244SOL    HW2  914   4.744   1.833   3.169 -1.7183 -1.5864  1.3217
  245SOL     OW  915   2.863   2.339   2.223 -0.5269  0.0536 -0.0316
  245SOL    HW1  916   2.867   2.423   2.278  2.1177  0.0505 -0.0829
  245SOL    HW2  917   2.860   2.364   2.126  0.8479  0.1286 -0.0695
  246SOL     OW  918   0.261   2.829   4.370  0.3989 -0.3493  0.0106
  246SOL    HW1  919   0.317   2.834   4.288  0.1661  1.8647 -0.0875
  246SOL    HW2  920   0.318   2.797   4.447  1.4872  0.6368 -0.3544
  247SOL     OW  921   2.546   2.441   2.671  0.5398 -0.2105 -0.2494
  247SOL    HW1  922   2.531   2.343   2.656 -0.1869 -0.5158  2.0702
  247SOL    HW2  923   2.466   2.492   2.639  0.0822 -0.5819  0.2797
  248SOL     OW  924   4.133   0.523   2.978  0.6768  0.1715 -0.4593
  248SOL    HW1  925   4.200   0.489   3.045  1.0694 -2.2119 -1.9320
  248SOL    HW2  926   4.085   0.445   2.939 -1.2999  1.6898 -1.1866
  249SOL     OW  927   3.372   2.986   0.262 -0.1984  0.2417  0.0922
  249SOL    HW1  928   3.377   2.937   0.175 -2.0896  0.8589 -0.4112
  249SOL    HW2  929   3.324   2.929   0.329 -1.2735  0.8758 -0.1220
  250SOL     OW  930   3.122   2.597   0.924 -0.3657 -0.7466 -0.0766
  250SOL    HW1  931   3.147   2.522   0.863  0.2719 -0.5663 -0.0445
  250SOL    HW2  932   3.045   2.568   0.982 -0.5390 -1.1464 -0.5009
  251SOL     OW  933   2.038   1.765   3.537  0.0095  0.2386  0.3547
  251SOL    HW1  934   2.044   1.697   3.610 -0.0746 -1.1700 -0.8965
  251SOL    HW2  935   2.123   1.764   3.484 -0.8402 -0.5067 -1.0282
  252SOL     OW  936   1.619   3.520   1.481  0.1202 -0.2539  0.2023
  252SOL    HW1  937   1.520   3.516   1.483  0.1396 -0.8029  0.5104
  252SOL    HW2  938   1.650   3.606   1.522 -0.2471  0.4554 -0.9754
  253SOL     OW  939   5.511   2.693   3.528 -0.3459 -0.4681 -0.2712
  253SOL    HW1  940   5.539   2.641   3.448  0.8985 -0.6186  0.2466
  253SOL    HW2  941   5.496   2.789   3.502 -1.2996 -0.7847 -0.9444
  254SOL     OW  942   3.940   2.742   4.529  0.3385 -0.2359  0.2061
  254SOL    HW1  943   3.850   2.760   4.488  1.0387 -0.7312 -1.6798
  254SOL    HW2  944   3.929   2.725   4.627 -1.3033  2.2060  0.5379
  255SOL     OW  945   2.879   2.011   4.548  0.0856  0.4762  0.1279
  255SOL    HW1  946   2.914   2.065   4.471 -1.9259 -0.0938 -1.2800
  255SOL    HW2  947   2.786   2.041   4.569 -1.8981 -3.4126 -1.9224
  256SOL     OW  948   1.035   2.857   3.616 -0.4914  0.0898  0.0635
  256SOL    HW1  949   1.074   2.927   3.676 -1.3479  1.1262 -0.5807
  256SOL    HW2  950   1.074   2.867   3.525  3.7005 -3.7523  1.0458
  257SOL     OW  951   1.559   1.262   3.249  0.6244 -0.3322  0.6069
  257SOL    HW1  952   1.636   1.208   3.283  0.3646 -1.8566 -1.0781
  257SOL    HW2  953   1.547   1.243   3.151 -1.5336  0.3257  0.7038
  258SOL     OW  954   3.842   2.895   3.638 -0.1654 -0.2208  0.2216
  258SOL    HW1  955   3.928   2.947   3.631 -0.1643 -0.2712 -0.1735
  258SOL    HW2  956   3.853   2.808   3.591 -0.4010 -0.2710  0.2598
  259SOL     OW  957   1.049   3.162   4.822 -0.1371 -0.2522 -1.1045
  259SOL    HW1  958   0.957   3.183   4.856 -0.3346 -0.1708 -1.6758
  259SOL    HW2  959   1.062   3.206   4.733  0.4529 -0.2744 -1.0349
  260SOL     OW  960   1.732   4.327   1.837  0.2535  0.3306 -0.1113
  260SOL    HW1  961   1.777   4.314   1.925 -1.4200 -1.1269  0.6006
  260SOL    HW2  962   1.636   4.298   1.845 -0.3696  1.6737 -1.9987
  261SOL     OW  963   3.063   1.536   2.079 -0.3283 -0.2143  0.8474
  261SOL    HW1  964   3.082   1.607   2.147  0.0077  0.7326 -0.2132
  261SOL    HW2  965   3.018   1.577   2.000 -0.7836 -1.3165  0.5232
  262SOL     OW  966   5.318   3.353   2.711 -0.2837 -0.3224  0.2694
  262SOL    HW1  967   5.295   3.257   2.728  0.6006 -0.1634  2.8051
  262SOL    HW2  968   5.336   3.399   2.798 -0.2586  2.0714 -0.8946
  263SOL     OW  969   4.308   1.799   2.069  0.1064  0.4065 -0.0029
  263SOL    HW1  970   4.374   1.858   2.022  1.3512 -0.1304  1.0095
  263SOL    HW2  971   4.274   1.845   2.150  0.2316  0.1765  0.1828
  264SOL     OW  972   2.640   4.343   1.587 -0.0523  0.3967 -0.1102
  264SOL    HW1  973   2.650   4.302   1.496  0.8661  2.7971 -1.1805
  264SOL    HW2  974   2.543   4.349   1.610 -0.3495  0.6540 -1.3717
  265SOL     OW  975   2.948   5.289   2.379  0.6937 -0.4485  0.7438
  265SOL    HW1  976   3.030   5.327   2.422  0.3765 -1.1863  2.0570
  265SOL    HW2  977   2.886   5.364   2.355  1.1503  0.0232  1.0086
  266SOL     OW  978   5.289   3.007   2.684  0.2825  0.6628 -0.3102
  266SOL    HW1  979   5.321   2.913   2.675 -1.2656  0.0970 -0.0717
  266SOL    HW2  980   5.328   3.047   2.767  0.1287 -0.0989  0.1363
  267SOL     OW  981   3.461   1.162   1.996 -0.1157  0.4316 -0.3409
  267SOL    HW1  982   3.523   1.088   1.968  0.8997  1.9832 -2.4689
  267SOL    HW2  983   3.440   1.152   2.093  1.8268 -1.3379 -0.0253
  268SOL     OW  984   3.307   3.702   1.679  0.4754 -0.1304 -0.7062
  268SOL    HW1  985   3.252   3.643   1.738  0.1834  0.9429  0.1409
  268SOL    HW2  986   3.249   3.776   1.644  1.3022  0.8917  0.0129
  269SOL     OW  987   2.796   5.086   1.747  0.2568  0.6650  0.2903
  269SOL    HW1  988   2.755   5.143   1.676 -0.7082 -0.8419 -0.4225
  269SOL    HW2  989   2.832   5.003   1.705 -1.4931 -0.8731  1.6842
  270SOL     OW  990   2.607   1.196   3.365  0.0727 -0.0222 -0.3504
  270SOL    HW1  991   2.519   1.149   3.372 -0.1820  0.3971 -0.6852
  270SOL    HW2  992   2.681   1.130   3.381 -0.3093 -0.2775  0.3794
  271SOL     OW  993   4.321   3.320   2.490 -0.0722  0.4343 -0.1492
  271SOL    HW1  994   4.318   3.414   2.523 -0.7238 -0.1878  1.7368
  271SOL    HW2  995   4.230   3.292   2.461 -0.1610 -0.0047  0.5319
  272SOL     OW  996   2.869   2.634   0.356  0.1536  0.1671  0.1227
  272SOL    HW1  997   2.826   2.588   0.434 -1.7077  1.9227  0.2092
  272SOL    HW2  998   2.957   2.591   0.337 -0.4386 -1.8550  1.6494
  273SOL     OW  999   2.992   5.240   1.825 -0.0686  0.0319 -0.0849
  273SOL    HW1 1000   2.914   5.180   1.810 -0.6494  1.0832 -1.4828
  273SOL    HW2 1001   2.967   5.334   1.801  1.0991  0.6968  1.1366
  274SOL     OW 1002   1.819   4.612   2.140 -0.7829  0.2821 -0.5059
  274SOL    HW1 1003   1.911   4.581   2.163 -1.7839 -1.0315  2.1693
  274SOL    HW2 1004   1.773   4.543   2.084 -0.2891  0.7753 -1.5369
  275SOL     OW 1005   5.388   3.481   2.316  0.1231 -0.4082  0.1138
  275SOL    HW1 1006   5.433   3.398   2.284 -0.0873 -0.9435  1.1602
  275SOL    HW2 1007   5.422   3.504   2.407  1.5774  1.7436 -0.9075
  276SOL     OW 1008   2.813   3.968   3.810  0.1673  0.0829 -0.5525
  276SOL    HW1 1009   2.736   3.905   3.803  0.4743 -0.5555  1.4742
  276SOL    HW2 1010   2.821   4.019   3.724 -2.6680  0.3685 -0.7408
  277SOL     OW 1011   2.431   1.934   2.068  0.1043 -0.0706 -0.0636
  277SOL    HW1 1012   2.436   1.971   1.975 -1.3568  0.6413  0.1079
  277SOL    HW2 1013   2.367   1.857   2.069  0.4280 -0.3376  0.2787
  278SOL     OW 1014   4.899   3.610   3.685 -0.0072 -0.2539 -0.0818
  278SOL    HW1 1015   4.861   3.533   3.633  1.8905  0.0490 -2.0304
  278SOL    HW2 1016   4.907   3.689   3.625  1.4475  0.3856  0.9089
  279SOL     OW 1017   1.686   3.032   2.155 -0.5756 -0.0131 -0.1785
  279SOL    HW1 1018   1.778   3.057   2.126 -0.1625  0.2245  1.2611
  279SOL    HW2 1019   1.686   3.014   2.253 -1.5747 -2.4166 -0.5525
  280SOL     OW 1020   1.095   3.259   4.570 -0.6090 -0.4870  0.3252
  280SOL    HW1 1021   1.193   3.277   4.571 -0.5691 -0.6552 -0.1864
  280SOL    HW2 1022   1.076   3.184   4.506 -1.0209 -0.7429  0.7416
  281SOL     OW 1023   3.391   1.419   2.819 -0.2168  0.5623 -0.5528
  281SOL    HW1 1024   3.441   1.378   2.895 -2.7055  1.8686  1.9735
  281SOL    HW2 1025   3.328   1.352   2.781  0.7310  0.0339 -1.2393
  282SOL     OW 1026   0.819   2.893   3.408 -0.0018 -0.1981 -0.5806
  282SOL    HW1 1027   0.770   2.818   3.453  0.9169  1.1148  2.9330
  282SOL    HW2 1028   0.908   2.906   3.452  0.3150  2.3060 -1.7518
  283SOL     OW 1029   5.133   2.074   3.725  0.1891 -0.1190  0.7494
  283SOL    HW1 1030   5.092   2.166   3.734 -0.0105  0.3832 -3.3374
  283SOL    HW2 1031   5.060   2.008   3.708  0.5517 -0.5752  0.9509
  284SOL     OW 1032   3.224   3.530   1.293 -0.0677  0.1927 -0.0527
  284SOL    HW1 1033   3.276   3.515   1.377  1.0535  1.1353 -0.5491
  284SOL    HW2 1034   3.176   3.445   1.269  0.8923 -0.5832  0.6561
  285SOL     OW 1035   1.502   3.160   4.573  0.3582 -0.6455  0.0114
  285SOL    HW1 1036   1.470   3.077   4.619  0.9016 -0.8346  0.0488
  285SOL    HW2 1037   1.437   3.185   4.501 -0.7252 -0.1272  1.1167
  286SOL     OW 1038   3.494   4.035   3.628  0.2957  0.1765 -0.2482
  286SOL    HW1 1039   3.496   3.950   3.680 -1.0728 -0.4920 -1.2299
  286SOL    HW2 1040   3.398   4.062   3.612  0.6596  0.5850 -2.0058
  287SOL     OW 1041   4.410   2.751   1.828 -0.4363 -0.0313  0.2859
  287SOL    HW1 1042   4.360   2.672   1.793 -0.1974 -0.0284 -0.0721
  287SOL    HW2 1043   4.365   2.835   1.798 -0.1076 -0.0265 -0.2169
  288SOL     OW 1044   2.082   5.170   2.596  0.1535  0.3434 -0.2436
  288SOL    HW1 1045   2.049   5.092   2.541  0.0285 -0.0940  0.4350
  288SOL    HW2 1046   2.126   5.135   2.679 -0.2911  1.0095  0.2812
  289SOL     OW 1047   0.914   2.632   3.666  0.0126  0.0054  0.0690
  289SOL    HW1 1048   0.833   2.635   3.607  0.0694 -0.7250 -0.0620
  289SOL    HW2 1049   0.973   2.710   3.645  1.2095 -1.4680 -2.5663
  290SOL     OW 1050   2.137   3.663   3.939 -0.7097  0.0620 -0.3191
  290SOL    HW1 1051   2.100   3.694   4.027 -0.6469 -0.0238 -0.2625
  290SOL    HW2 1052   2.064   3.619   3.887 -0.1262 -2.3999  0.8411
  291SOL     OW 1053   2.872   3.502   1.919 -0.1097  0.3820  0.4379
  291SOL    HW1 1054   2.810   3.573   1.887 -0.4180  0.2836  0.8179
  291SOL    HW2 1055   2.826   3.414   1.914 -0.1216  0.3533  1.0492
  292SOL     OW 1056   1.667   1.763   3.933 -0.0477 -0.2360 -0.1182
  292SOL    HW1 1057   1.721   1.688   3.972  1.5927  0.3902 -1.0976
  292SOL    HW2 1058   1.605   1.727   3.864 -0.6269 -0.9155  0.7362
  293SOL     OW 1059   2.632   2.829   0.553 -0.0623  0.1864 -0.0032
  293SOL    HW1 1060   2.547   2.849   0.601 -1.5427 -0.6330 -2.1318
  293SOL    HW2 1061   2.627   2.866   0.460  1.1178 -1.5019 -0.7934
  294SOL     OW 1062   4.760   2.575   3.737  0.3775  0.5391 -0.0360
  294SOL    HW1 1063   4.719   2.658   3.699  0.9254  1.4349  1.2584
  294SOL    HW2 1064   4.748   2.574   3.836 -2.6060 -2.6136 -0.2416
  295SOL     OW 1065   1.198   2.917   4.821 -0.3262 -0.1444  0.0827
  295SOL    HW1 1066   1.139   2.995   4.841  1.4795  0.9046  1.6458
  295SOL    HW2 1067   1.282   2.950   4.779  0.2152 -1.3084  0.2196
  296SOL     OW 1068   2.630   2.294   3.964  0.0441  0.2165  0.1116
  296SOL    HW1 1069   2.550   2.240   3.939  0.2475 -0.2262  0.4149
  296SOL    HW2 1070   2.710   2.258   3.916  0.0174  0.8414 -0.4224
  297SOL     OW 1071   3.780   3.606   1.489  0.1756  0.3943 -0.1034
  297SOL    HW1 1072   3.859   3.613   1.549  0.6031 -2.2291 -0.2349
  297SOL    HW2 1073   3.704   3.657   1.528  0.8085 -0.2254  2.0664
  298SOL     OW 1074   1.936   3.426   1.858 -0.1839 -0.5084 -0.2097
  298SOL    HW1 1075   1.896   3.343   1.896  0.8796 -0.6166  0.7263
  298SOL    HW2 1076   1.875   3.503   1.877  0.0868 -0.6339  1.3585
  299SOL     OW 1077   3.018   1.297   2.835 -0.0668  0.4674  0.0171
  299SOL    HW1 1078   2.969   1.377   2.869  1.2123  1.5312 -0.5326
  299SOL    HW2 1079   3.068   1.255   2.910 -0.2000  0.5973  0.1800
  300SOL     OW 1080   5.669   2.880   3.818 -0.0491 -0.0192 -0.1454
  300SOL    HW1 1081   5.649   2.783   3.831  0.2689 -0.1773 -0.7994
  300SOL    HW2 1082   5.763   2.898   3.849 -0.1665  0.1118  0.1323
  301SOL     OW 1083   4.585   3.919   3.809  0.0550  0.1527  0.4130
  301SOL    HW1 1084   4.578   4.017   3.828 -1.0080 -0.0186  0.9493
  301SOL    HW2 1085   4.627   3.874   3.888  0.0853  0.1084  0.3710
  302SOL     OW 1086   1.943   4.237   2.944 -0.1613 -0.7262 -0.1583
  302SOL    HW1 1087   1.934   4.217   3.042 -0.0854  0.1171  0.0273
  302SOL    HW2 1088   2.012   4.308   2.931  1.0794 -2.0331 -0.9715
  303SOL     OW 1089   3.966   4.151   3.141  0.6608  0.2900 -0.1593
  303SOL    HW1 1090   3.938   4.226   3.081  0.1441  1.4479  1.4409
  303SOL    HW2 1091   4.013   4.189   3.221 -0.1991 -1.0363  1.0266
  304SOL     OW 1092   2.670   3.643   1.774 -0.5303 -0.4036  0.4348
  304SOL    HW1 1093   2.681   3.676   1.680 -0.4356  0.5450  0.7620
  304SOL    HW2 1094   2.572   3.642   1.796 -0.7344 -2.6933 -0.3632
  305SOL     OW 1095   0.789   3.637   4.078 -0.2373  0.4401 -0.7124
  305SOL    HW1 1096   0.703   3.588   4.068  1.7387 -3.3728 -0.9646
  305SOL    HW2 1097   0.826   3.657   3.987  1.3690 -2.5378 -0.8300
  306SOL     OW 1098   3.683   2.278   1.589 -0.1968  0.1756 -0.2801
  306SOL    HW1 1099   3.692   2.302   1.493 -0.3489  2.7248  0.2859
  306SOL    HW2 1100   3.770   2.294   1.636 -0.4896  0.2199  0.2653
  307SOL     OW 1101   2.856   2.189   3.839 -0.1524  0.0334  0.1842
  307SOL    HW1 1102   2.929   2.208   3.905  1.2464  0.0109 -1.2686
  307SOL    HW2 1103   2.898   2.169   3.750 -1.9718  1.6476 -1.1241
  308SOL     OW 1104   2.034   3.649   1.591  0.1222 -0.0264  0.2457
  308SOL    HW1 1105   1.972   3.570   1.589  0.7336 -0.5052 -1.4026
  308SOL    HW2 1106   2.044   3.680   1.685 -2.9463  0.3383  0.5804
  309SOL     OW 1107   5.613   3.357   4.006  0.2257  0.4222  0.5117
  309SOL    HW1 1108   5.619   3.273   3.952  0.1825 -0.1172  1.3339
  309SOL    HW2 1109   5.539   3.414   3.971 -0.4866 -0.4005  0.6701
  310SOL     OW 1110   5.133   2.992   4.189 -0.5384  0.5098  0.6984
  310SOL    HW1 1111   5.172   3.082   4.206 -1.5688  1.2044 -0.4923
  310SOL    HW2 1112   5.207   2.925   4.181  0.3031  1.4571  0.3826
  311SOL     OW 1113   0.275   2.344   3.540 -0.1020  0.1342 -0.4775
  311SOL    HW1 1114   0.336   2.290   3.482  0.2083 -0.6828  0.5816
  311SOL    HW2 1115   0.312   2.437   3.548 -0.2504  0.3209 -1.7130
  312SOL     OW 1116   1.798   1.716   2.628 -0.1177 -0.0988  0.3013
  312SOL    HW1 1117   1.883   1.734   2.677  1.9190 -0.0929 -2.9755
  312SOL    HW2 1118   1.745   1.800   2.623  1.3963  0.8408 -0.6144
  313SOL     OW 1119   2.488   1.369   2.460 -0.1297 -0.0871  0.2109
  313SOL    HW1 1120   2.564   1.305   2.448 -0.0837  0.1543 -0.8556
  313SOL    HW2 1121   2.417   1.326   2.515  0.1567 -0.8396  0.0011
  314SOL     OW 1122   1.889   3.917   4.509  0.0253  0.3402 -0.3563
  314SOL    HW1 1123   1.824   3.957   4.444 -0.2295 -0.1541 -0.4098
  314SOL    HW2 1124   1.982   3.941   4.480 -0.1209  0.9460 -0.3489
  315SOL     OW 1125   3.305   0.493   2.076 -0.6864 -0.4111  0.0472
  315SOL    HW1 1126   3.251   0.442   2.142 -1.2946 -0.4207 -0.4438
  315SOL    HW2 1127   3.321   0.586   2.110 -2.4772  0.1546 -0.5178
  316SOL     OW 1128   5.392   2.911   4.230  0.6647  0.5670 -0.1146
  316SOL    HW1 1129   5.383   2.996   4.282 -0.6625 -1.0381  2.4738
  316SOL    HW2 1130   5.449   2.847   4.281 -0.0803 -0.8262 -0.9698
  317SOL     OW 1131   1.815   1.112   3.260 -0.1990  0.4092  0.4070
  317SOL    HW1 1132   1.846   1.073   3.346  0.1830  1.1159  0.5995
  317SOL    HW2 1133   1.876   1.188   3.234 -2.2552  2.4855  1.2806
  318SOL     OW 1134   3.594   5.307   3.401 -0.1928 -0.2305 -0.2888
  318SOL    HW1 1135   3.565   5.305   3.305  0.9391  0.9994 -0.7050
  318SOL    HW2 1136   3.694   5.299   3.404 -0.0621  1.3532  0.6537
  319SOL     OW 1137   4.212   2.057   3.740 -0.2658  0.6119 -0.2166
  319SOL    HW1 1138   4.256   2.137   3.780  0.2822 -0.5189  1.5629
  319SOL    HW2 1139   4.117   2.079   3.717 -0.5041  1.4100  1.4298
  320SOL     OW 1140   4.926   3.099   4.278  0.1281 -0.1112  0.0402
  320SOL    HW1 1141   4.923   3.164   4.203 -0.7985  0.0106  0.1616
  320SOL    HW2 1142   5.005   3.039   4.268  0.6794  0.6747 -0.3720
  321SOL     OW 1143   3.663   5.744   2.345 -0.2130  0.0236  0.4627
  321SOL    HW1 1144   3.732   5.678   2.375 -0.2314 -0.3672 -0.3349
  321SOL    HW2 1145   3.709   5.826   2.309 -0.1635 -0.2140 -0.0176
  322SOL     OW 1146   3.519   1.312   3.059 -0.1862  0.0857  0.5404
  322SOL    HW1 1147   3.612   1.345   3.075  0.3514 -0.5368 -1.1449
  322SOL    HW2 1148   3.471   1.307   3.147  1.2502  0.7299  1.4015
  323SOL     OW 1149   2.610   3.704   4.690 -0.5426  0.2642  0.1278
  323SOL    HW1 1150   2.698   3.662   4.666 -0.1379  1.0436  0.1982
  323SOL    HW2 1151   2.558   3.642   4.748 -1.2544 -1.3878 -2.1437
  324SOL     OW 1152   3.469   3.056   1.922  0.0351  0.0648 -0.2942
  324SOL    HW1 1153   3.556   3.079   1.967 -0.3887 -0.4950  0.8385
  324SOL    HW2 1154   3.480   2.969   1.872  0.7519  1.1015 -2.0522
  325SOL     OW 1155   1.707   3.150   1.878  0.1267  0.0588  0.2388
  325SOL    HW1 1156   1.660   3.062   1.871 -1.2029  0.7504  0.2235
  325SOL    HW2 1157   1.787   3.140   1.938 -0.1747 -1.0755  0.4710
  326SOL     OW 1158   5.589   2.902   2.889 -0.0240  0.3727 -0.1936
  326SOL    HW1 1159   5.632   2.882   2.977  1.6491  1.7402 -0.6349
  326SOL    HW2 1160   5.521   2.974   2.901  0.7292  1.0809 -0.1218
  327SOL     OW 1161   3.491   0.260   2.478 -0.2469 -0.2705 -0.2144
  327SOL    HW1 1162   3.447   0.227   2.394  1.1986 -2.7655 -0.1196
  327SOL    HW2 1163   3.445   0.343   2.510 -1.7731 -0.0910 -2.6381
  328SOL     OW 1164   2.863   4.776   1.299 -0.1075  0.1006  0.2140
  328SOL    HW1 1165   2.846   4.873   1.283  1.1695  0.1894 -0.7686
  328SOL    HW2 1166   2.776   4.731   1.320 -0.8358  1.3126 -0.0600
  329SOL     OW 1167   3.350   3.791   2.596 -0.3480 -0.1887  0.2500
  329SOL    HW1 1168   3.326   3.699   2.566  1.2708 -0.5051 -0.1900
  329SOL    HW2 1169   3.383   3.844   2.517 -1.2563  0.7692  0.4999
  330SOL     OW 1170   2.935   5.064   2.520  0.2306  0.2619 -0.3520
  330SOL    HW1 1171   2.912   5.139   2.458 -1.4090 -0.0034 -0.1307
  330SOL    HW2 1172   2.978   4.990   2.468  1.6299  1.2323 -0.6141
  331SOL     OW 1173   1.953   5.555   2.095  0.3821  0.5088 -0.0676
  331SOL    HW1 1174   2.000   5.586   2.178 -1.2735  0.5567  0.9057
  331SOL    HW2 1175   1.974   5.617   2.020  1.2560  0.9478  0.5241
  332SOL     OW 1176   2.476   1.013   3.033  0.7460  0.6049  0.0698
  332SOL    HW1 1177   2.529   0.976   2.956  1.2868  1.3001  0.0990
  332SOL    HW2 1178   2.459   1.110   3.018 -3.2025 -0.1378 -1.4562
  333SOL     OW 1179   4.509   3.189   2.635 -0.2814  0.8523 -0.1115
  333SOL    HW1 1180   4.601   3.222   2.615 -0.2273  1.6721  1.3356
  333SOL    HW2 1181   4.445   3.230   2.570  0.3059  0.5997 -0.8659
  334SOL     OW 1182   2.832   2.517   2.412  0.0376  0.3229  0.2817
  334SOL    HW1 1183   2.809   2.441   2.472  0.5297  1.3604  1.8446
  334SOL    HW2 1184   2.927   2.545   2.428  1.0823 -0.9812 -2.8370
  335SOL     OW 1185   2.558   2.969   2.505  0.2042 -0.0119 -0.4327
  335SOL    HW1 1186   2.578   2.877   2.471 -1.3071 -0.1075 -1.1354
  335SOL    HW2 1187   2.542   2.965   2.604  2.2226 -0.1235 -0.0630
  336SOL     OW 1188   1.122   3.764   3.625  0.0047  0.0154 -0.2331
  336SOL    HW1 1189   1.086   3.857   3.631  0.0436 -0.0050  0.3800
  336SOL    HW2 1190   1.127   3.737   3.529  1.2963  1.1629 -0.5266
  337SOL     OW 1191   4.155   1.388   3.618 -0.0755  0.4443 -0.1749
  337SOL    HW1 1192   4.245   1.422   3.646  0.1593  0.3580 -0.8080
  337SOL    HW2 1193   4.127   1.435   3.535 -0.1441 -0.2758 -0.5655
  338SOL     OW 1194   4.440   4.272   2.712  0.4833 -1.1102  0.0078
  338SOL    HW1 1195   4.386   4.234   2.637 -1.4810  0.2022  0.6705
  338SOL    HW2 1196   4.427   4.216   2.794  1.1342 -1.4886 -0.1427
  339SOL     OW 1197   1.711   1.472   2.907 -1.1521 -0.2665 -0.3082
  339SOL    HW1 1198   1.793   1.492   2.853 -0.7761 -2.1855 -0.5102
  339SOL    HW2 1199   1.683   1.555   2.955  0.7061  0.5298 -0.5042
  340SOL     OW 1200   2.865   1.059   1.949 -0.2880  0.3238  0.3117
  340SOL    HW1 1201   2.768   1.051   1.969  0.0912  0.8836  2.7368
  340SOL    HW2 1202   2.888   1.156   1.937 -0.2845  0.0807 -1.9988
  341SOL     OW 1203   3.200   0.074   1.820 -0.1486 -0.1518  0.8137
  341SOL    HW1 1204   3.197   0.174   1.827  2.1416  0.0573 -0.3531
  341SOL    HW2 1205   3.277   0.047   1.763 -2.7852 -2.4973 -1.9746
  342SOL     OW 1206   1.364   3.226   4.328 -0.6528 -0.1397 -0.2400
  342SOL    HW1 1207   1.318   3.314   4.338 -1.6008 -0.7700  1.3281
  342SOL    HW2 1208   1.304   3.162   4.281 -0.5915 -0.3992  0.0315
  343SOL     OW 1209   1.130   2.638   2.877 -0.1677  0.1492  0.5978
  343SOL    HW1 1210   1.119   2.540   2.891 -2.3822  0.2231 -0.1622
  343SOL    HW2 1211   1.224   2.657   2.852  0.0104 -1.9832 -0.6346
  344SOL     OW 1212   5.590   3.137   3.849  0.2972 -0.2909  0.1472
  344SOL    HW1 1213   5.610   3.039   3.856 -2.0753 -0.9075 -0.5780
  344SOL    HW2 1214   5.643   3.175   3.774  2.7852 -0.5032  1.7094
  345SOL     OW 1215   2.068   3.074   1.793 -0.0419 -0.0220  0.0925
  345SOL    HW1 1216   2.087   3.137   1.718  3.3024 -0.5687  0.3199
  345SOL    HW2 1217   2.039   2.986   1.756  0.2803  0.1234 -0.5135
  346SOL     OW 1218   3.757   2.856   1.893  0.1914 -0.8591 -0.7488
  346SOL    HW1 1219   3.802   2.859   1.982 -1.6372  1.2080  0.1812
  346SOL    HW2 1220   3.828   2.853   1.822  1.8308  1.3767  0.6594
  347SOL     OW 1221   5.010   3.693   1.882  0.0633  0.2235 -0.6057
  347SOL    HW1 1222   4.964   3.781   1.869 -0.0332  0.0369 -1.6089
  347SOL    HW2 1223   4.960   3.622   1.834 -0.7143 -0.6960  1.4431
  348SOL     OW 1224   4.462   1.695   2.353 -0.3689 -0.3606 -0.1572
  348SOL    HW1 1225   4.424   1.771   2.301  0.2186 -0.4364 -0.7188
  348SOL    HW2 1226   4.470   1.615   2.292 -0.7965 -0.8151  0.3714
  349SOL     OW 1227   3.770   5.336   3.041 -0.7491 -0.8499 -0.1996
  349SOL    HW1 1228   3.812   5.344   3.132 -0.0565  3.9162 -0.6568
  349SOL    HW2 1229   3.677   5.301   3.051 -0.4165 -1.2437  2.2169
  350SOL     OW 1230   2.992   0.098   1.495  0.5685  0.3769  0.2411
  350SOL    HW1 1231   3.069   0.124   1.436 -0.1738  0.6009 -0.6387
  350SOL    HW2 1232   2.953   0.181   1.536 -1.1500  0.6497 -1.7651
  351SOL     OW 1233   3.750   5.341   2.139  0.1977  0.4838  0.0849
  351SOL    HW1 1234   3.757   5.427   2.190  0.2714  0.7749 -0.4056
  351SOL    HW2 1235   3.683   5.282   2.184 -0.7402  1.2783 -0.2375
  352SOL     OW 1236   2.465   3.534   1.360 -0.2244 -0.1464  0.5072
  352SOL    HW1 1237   2.419   3.519   1.448 -0.5055 -1.1237  0.2037
  352SOL    HW2 1238   2.396   3.554   1.291  0.0166  0.9095  0.5434
  353SOL     OW 1239   3.162   3.581   1.871  0.2747  0.2591  0.3989
  353SOL    HW1 1240   3.127   3.674   1.869  0.5048  0.3382 -0.0233
  353SOL    HW2 1241   3.086   3.517   1.874  0.0936  0.4338 -0.3632
  354SOL     OW 1242   4.583   4.229   2.161  0.4253 -0.1276  0.1886
  354SOL    HW1 1243   4.622   4.262   2.246  0.9690  0.1099 -0.1466
  354SOL    HW2 1244   4.484   4.222   2.171  0.4814 -0.0644  0.8246
  355SOL     OW 1245   3.285   0.968   2.940 -0.1908 -0.3176 -0.2385
  355SOL    HW1 1246   3.295   0.972   2.841  1.2994  0.7137 -0.0723
  355SOL    HW2 1247   3.374   0.949   2.981 -1.3154 -4.3878  0.7828
  356SOL     OW 1248   1.560   2.740   4.239  0.4090 -0.0792 -0.1287
  356SOL    HW1 1249   1.475   2.733   4.291 -0.0452  0.2596 -0.8078
  356SOL    HW2 1250   1.626   2.794   4.291  0.3880 -0.7662  0.6235
  357SOL     OW 1251   3.529   2.709   2.630  0.5637 -0.6539  0.3759
  357SOL    HW1 1252   3.573   2.733   2.717  2.6407 -0.3311 -0.7054
  357SOL    HW2 1253   3.538   2.611   2.614  0.1334 -0.7223  0.5186
  358SOL     OW 1254   4.084   2.545   4.101 -0.3923 -0.8048 -0.0135
  358SOL    HW1 1255   4.097   2.561   4.003 -0.9681  0.6643  0.1222
  358SOL    HW2 1256   4.169   2.565   4.150 -0.5948  0.1718 -0.0434
  359SOL     OW 1257   3.278   0.352   1.821 -0.2338  0.6532  0.1972
  359SOL    HW1 1258   3.277   0.393   1.913  1.1107  0.9888  0.0847
  359SOL    HW2 1259   3.344   0.277   1.819 -1.0320 -0.0450 -0.2177
  360SOL     OW 1260   0.264   3.872   3.232 -0.4362  0.1939 -0.2855
  360SOL    HW1 1261   0.324   3.802   3.191 -0.3567  0.2512 -0.2666
  360SOL    HW2 1262   0.260   3.951   3.171 -2.2377 -0.6730 -1.3731
  361SOL     OW 1263   2.836   3.544   5.072  0.0655  0.1751  0.1047
  361SOL    HW1 1264   2.848   3.511   5.166 -1.1468  2.3861  1.1209
  361SOL    HW2 1265   2.895   3.623   5.057 -0.7494  0.6847 -0.5138
  362SOL     OW 1266   3.532   1.654   2.830 -1.0281  0.5246  0.3657
  362SOL    HW1 1267   3.473   1.574   2.843  0.4223 -0.4608  1.3534
  362SOL    HW2 1268   3.553   1.694   2.919  2.3868 -1.2137  0.5415
  363SOL     OW 1269   3.805   3.389   1.312 -0.0686  0.6283  0.3463
  363SOL    HW1 1270   3.798   3.434   1.401 -1.9796 -0.0606  0.6060
  363SOL    HW2 1271   3.830   3.456   1.242 -1.3219  1.8020  0.9728
  364SOL     OW 1272   2.895   3.074   4.546  0.0629 -0.1771 -0.1671
  364SOL    HW1 1273   2.937   3.164   4.559 -0.1807  0.0011 -0.6053
  364SOL    HW2 1274   2.796   3.083   4.557  0.0483 -0.4136 -0.1064
  365SOL     OW 1275   3.993   0.306   2.175  0.9106  0.0290  0.7936
  365SOL    HW1 1276   3.985   0.399   2.212  1.5721 -0.0944  1.2711
  365SOL    HW2 1277   3.959   0.240   2.242 -1.8268  0.0475 -0.4766
  366SOL     OW 1278   3.233   1.176   1.836  0.3521  0.0151  0.7408
  366SOL    HW1 1279   3.316   1.202   1.886  1.3631  0.6461 -1.1770
  366SOL    HW2 1280   3.184   1.259   1.810  0.2514 -0.2606  0.0331
  367SOL     OW 1281   4.463   3.373   2.035  0.1896 -0.0578 -0.5673
  367SOL    HW1 1282   4.454   3.323   2.121  3.4585 -1.1500 -0.7278
  367SOL    HW2 1283   4.462   3.471   2.055 -3.0487 -0.1013  0.1276
  368SOL     OW 1284   1.895   1.999   3.728 -0.4115  0.5285 -0.0714
  368SOL    HW1 1285   1.958   2.065   3.687 -0.8382  1.2734  0.4410
  368SOL    HW2 1286   1.853   1.944   3.656 -0.5785  1.3071 -0.5857
  369SOL     OW 1287   3.283   2.128   4.168  0.0383  0.2239  0.0059
  369SOL    HW1 1288   3.257   2.056   4.232 -0.7519  0.0137 -0.5351
  369SOL    HW2 1289   3.359   2.095   4.111  0.8288  0.4610  0.9029
  370SOL     OW 1290   2.153   5.269   2.335 -0.1041 -0.3364  0.0412
  370SOL    HW1 1291   2.152   5.222   2.423 -0.8895 -0.4429 -0.0146
  370SOL    HW2 1292   2.219   5.224   2.275 -0.1375 -0.7538  0.3116
  371SOL     OW 1293   1.914   5.309   2.193  0.4852  0.0905  0.3951
  371SOL    HW1 1294   1.933   5.397   2.148 -1.5169  1.4381  2.0048
  371SOL    HW2 1295   1.995   5.281   2.245  2.4240 -0.9071 -2.8591
  372SOL     OW 1296   1.654   3.312   2.197 -0.1297  0.5295 -0.4808
  372SOL    HW1 1297   1.661   3.214   2.176 -1.0942  0.5277 -0.8828
  372SOL    HW2 1298   1.703   3.331   2.281 -0.1304 -0.3547 -0.2686
  373SOL     OW 1299   2.707   2.762   4.427 -0.4134 -0.0732 -0.4088
  373SOL    HW1 1300   2.708   2.782   4.525 -1.6616 -1.7447  0.0012
  373SOL    HW2 1301   2.634   2.815   4.384 -0.6896 -0.2717 -0.1892
  374SOL     OW 1302   3.104   3.055   1.049  0.9740 -0.6211  0.6891
  374SOL    HW1 1303   3.158   2.980   1.010  1.5519  0.1470 -0.0145
  374SOL    HW2 1304   3.097   3.128   0.982  2.1704  0.8266  2.0714
  375SOL     OW 1305   3.551   2.907   2.883 -0.0295 -0.1880 -0.0608
  375SOL    HW1 1306   3.469   2.964   2.889 -0.1804 -0.4189  0.0988
  375SOL    HW2 1307   3.612   2.944   2.813 -0.0927  0.2099  0.0919
  376SOL     OW 1308   4.008   1.487   2.607 -0.2113  0.3664  0.0736
  376SOL    HW1 1309   3.924   1.522   2.648 -1.0471 -0.8867 -0.5058
  376SOL    HW2 1310   4.085   1.504   2.669 -1.0931  0.3975  1.1820
  377SOL     OW 1311   3.715   3.187   3.180  0.2444  0.1394  0.1331
  377SOL    HW1 1312   3.708   3.112   3.246  0.9681  1.4435  1.7496
  377SOL    HW2 1313   3.636   3.248   3.191  1.3186  1.4018  1.1856
  378SOL     OW 1314   2.493   2.013   3.905  0.4112 -0.4051 -0.2574
  378SOL    HW1 1315   2.416   1.949   3.910 -1.5082  1.8094  0.4765
  378SOL    HW2 1316   2.473   2.082   3.836  1.8915  0.0450 -0.2545
  379SOL     OW 1317   3.034   3.290   2.666  0.8152 -0.9626 -0.1979
  379SOL    HW1 1318   2.968   3.216   2.652  2.1256 -2.0662 -0.7194
  379SOL    HW2 1319   3.019   3.362   2.598 -0.5181 -0.6747  0.3639
  380SOL     OW 1320   3.035   5.366   3.206  0.1182 -0.0139 -0.3141
  380SOL    HW1 1321   3.081   5.347   3.119  0.1360 -0.5908 -0.1890
  380SOL    HW2 1322   3.075   5.447   3.248 -0.3509  0.6639 -1.1629
  381SOL     OW 1323   4.516   4.353   3.517 -0.0844  0.4450  0.0001
  381SOL    HW1 1324   4.484   4.279   3.459  0.9438 -0.0908  0.0915
  381SOL    HW2 1325   4.531   4.435   3.460 -0.8473  0.4765 -0.1639
  382SOL     OW 1326   2.508   3.818   4.438 -0.5876  0.0623  0.7313
  382SOL    HW1 1327   2.559   3.894   4.398  0.3800 -0.2548  1.3192
  382SOL    HW2 1328   2.547   3.797   4.528 -1.0573 -0.9150  0.7146
  383SOL     OW 1329   2.985   1.247   2.460  0.3161 -0.0105  0.2419
  383SOL    HW1 1330   3.031   1.315   2.404  1.1278  1.3794  2.4407
  383SOL    HW2 1331   2.989   1.158   2.415  3.2153  0.4960 -0.7029
  384SOL     OW 1332   3.922   5.587   2.426  0.3771 -0.0625 -0.4128
  384SOL    HW1 1333   3.951   5.670   2.474 -0.6756  0.8306 -1.2752
  384SOL    HW2 1334   3.926   5.509   2.490  0.3515  0.8342  0.7216
  385SOL     OW 1335   3.743   3.791   3.731 -0.3935 -0.0377  0.1301
  385SOL    HW1 1336   3.819   3.827   3.785 -0.3486 -0.5062  0.3793
  385SOL    HW2 1337   3.749   3.692   3.726 -0.6280 -0.0273 -0.3976
  386SOL     OW 1338   1.652   1.708   3.025 -0.8460 -0.3147  0.9698
  386SOL    HW1 1339   1.723   1.766   2.984 -0.0005 -0.4041  2.2477
  386SOL    HW2 1340   1.659   1.712   3.125 -1.5011 -1.7283  1.1061
  387SOL     OW 1341   4.303   3.275   3.316 -0.0148  0.1027  0.1592
  387SOL    HW1 1342   4.337   3.292   3.224  3.2677 -0.6617  1.0805
  387SOL    HW2 1343   4.305   3.360   3.369 -0.3124  0.2160 -0.0103
  388SOL     OW 1344   4.975   3.251   2.351  0.0508 -0.0586 -0.4965
  388SOL    HW1 1345   5.023   3.339   2.350 -2.1020  1.2144  0.5598
  388SOL    HW2 1346   4.917   3.244   2.270 -0.6766  0.0529  0.0030
  389SOL     OW 1347   4.170   4.442   3.446 -0.2554 -0.2308 -0.5289
  389SOL    HW1 1348   4.259   4.479   3.472 -0.1968 -0.2455 -0.7083
  389SOL    HW2 1349   4.161   4.349   3.483 -0.2326 -0.1968 -0.4363
  390SOL     OW 1350   1.409   3.511   3.928 -0.4109  0.4972 -0.8088
  390SOL    HW1 1351   1.323   3.476   3.964 -0.2433  0.1653 -0.7244
  390SOL    HW2 1352   1.460   3.557   4.001  0.1104 -0.5236 -0.5021
  391SOL     OW 1353   3.361   1.115   2.253 -0.4609  0.3773 -0.4662
  391SOL    HW1 1354   3.313   1.032   2.226 -0.4247  0.7563 -1.7654
  391SOL    HW2 1355   3.294   1.188   2.269 -0.3897  0.8247 -1.9939
  392SOL     OW 1356   2.107   1.201   3.596  0.0284 -0.2554 -0.5542
  392SOL    HW1 1357   2.112   1.202   3.696 -2.4098 -0.8367 -0.3640
  392SOL    HW2 1358   2.142   1.288   3.561 -1.9177  1.2901  1.0434
  393SOL     OW 1359   4.586   1.633   3.562  0.3316 -0.6547 -0.2351
  393SOL    HW1 1360   4.531   1.645   3.479  1.8109 -1.2121 -1.3351
  393SOL    HW2 1361   4.646   1.712   3.572  1.5258 -1.4530 -0.8068
  394SOL     OW 1362   4.997   1.986   3.359  0.6139 -0.2596  0.7393
  394SOL    HW1 1363   5.002   1.940   3.448  1.3898 -1.8670 -0.0932
  394SOL    HW2 1364   4.921   1.947   3.306  0.0794  0.7713  0.7129
  395SOL     OW 1365   0.695   2.679   3.521 -0.0921  0.3224 -0.3062
  395SOL    HW1 1366   0.637   2.720   3.591 -0.5330 -1.2347  0.2703
  395SOL    HW2 1367   0.640   2.662   3.439  0.1426  1.0261 -0.6252
  396SOL     OW 1368   3.683   3.108   3.570  0.4335  0.4612 -0.3484
  396SOL    HW1 1369   3.586   3.099   3.591  0.5180 -0.2907 -0.2465
  396SOL    HW2 1370   3.736   3.053   3.635  0.6559 -2.6664 -2.8841
  397SOL     OW 1371   3.746   0.949   3.589 -0.2551  0.2102 -0.7735
  397SOL    HW1 1372   3.722   0.858   3.623 -2.8416  1.0405 -0.0948
  397SOL    HW2 1373   3.745   1.013   3.665  1.5850  0.8515 -1.2361
  398SOL     OW 1374   2.413   0.966   3.404 -0.1309 -0.1668 -0.6197
  398SOL    HW1 1375   2.330   0.941   3.354 -0.8528  1.2251 -0.1814
  398SOL    HW2 1376   2.493   0.930   3.356 -0.9472 -0.9998 -1.3874
  399SOL     OW 1377   2.697   1.795   1.933 -0.0125 -0.2569  0.5393
  399SOL    HW1 1378   2.758   1.874   1.923  0.0437 -0.2538  0.9207
  399SOL    HW2 1379   2.603   1.827   1.942 -0.1288 -0.2722 -0.4391
  400SOL     OW 1380   1.794   2.375   2.806  0.6826  0.2917  0.7948
  400SOL    HW1 1381   1.740   2.302   2.848  2.1926 -0.3585  1.7360
  400SOL    HW2 1382   1.891   2.357   2.824  1.5145 -0.1289 -3.1549
  401SOL     OW 1383   2.229   5.038   2.764  0.5252 -0.5731  0.0460
  401SOL    HW1 1384   2.217   4.939   2.774  0.4318 -0.9971 -3.1395
  401SOL    HW2 1385   2.318   5.056   2.722 -0.2287  0.5130 -1.1671
  402SOL     OW 1386   1.757   2.341   4.112  0.3221 -0.5597  0.3804
  402SOL    HW1 1387   1.671   2.329   4.162 -0.2541  2.2435  0.2159
  402SOL    HW2 1388   1.752   2.291   4.026 -1.9988  1.0571 -0.5109
  403SOL     OW 1389   3.838   4.049   3.600 -0.1499 -0.1088 -0.7996
  403SOL    HW1 1390   3.906   4.054   3.673  0.3992 -1.3835 -1.1950
  403SOL    HW2 1391   3.761   3.994   3.632 -1.4809  2.0848 -0.0191
  404SOL     OW 1392   4.773   4.310   3.374 -0.1635  0.7992  0.5746
  404SOL    HW1 1393   4.688   4.290   3.424 -0.3096  0.8743  0.3552
  404SOL    HW2 1394   4.753   4.373   3.300  0.1383  1.0525  0.7073
  405SOL     OW 1395   1.424   2.612   4.001 -0.4163  0.0031 -0.0543
  405SOL    HW1 1396   1.482   2.627   3.921 -0.2097  0.4152  0.1709
  405SOL    HW2 1397   1.475   2.634   4.084 -0.6062 -0.4933  0.1963
  406SOL     OW 1398   2.085   2.779   1.982 -0.1900 -0.5047  0.4793
  406SOL    HW1 1399   1.986   2.783   1.970 -0.3334 -1.8210  1.0232
  406SOL    HW2 1400   2.107   2.806   2.076 -0.2167 -1.8776  0.9022
  407SOL     OW 1401   3.204   5.606   2.950 -0.1278  0.2916  0.7969
  407SOL    HW1 1402   3.204   5.634   2.854  1.1052 -0.3105  0.5967
  407SOL    HW2 1403   3.143   5.665   3.002  0.4560  1.7098 -0.0686
  408SOL     OW 1404   1.315   2.741   4.355 -0.2029  0.1873  0.1934
  408SOL    HW1 1405   1.240   2.755   4.291 -0.2206 -2.2364 -0.4158
  408SOL    HW2 1406   1.282   2.756   4.449 -1.6476 -1.3736 -0.0186
  409SOL     OW 1407   4.026   4.075   2.170  0.4680 -0.2877 -0.1641
  409SOL    HW1 1408   4.083   4.154   2.147  0.0675 -0.4327 -1.7668
  409SOL    HW2 1409   3.937   4.108   2.203  0.2273 -0.0508 -1.0229
  410SOL     OW 1410   0.711   3.579   3.358  0.4328  0.1122  0.1142
  410SOL    HW1 1411   0.720   3.575   3.457 -1.4850  0.3117  0.3391
  410SOL    HW2 1412   0.710   3.675   3.329 -0.0484  0.0860  0.0324
  411SOL     OW 1413   3.597   5.770   1.923 -0.3189 -0.5307 -0.2722
  411SOL    HW1 1414   3.681   5.800   1.968 -0.4539 -1.8688  0.9520
  411SOL    HW2 1415   3.614   5.683   1.877 -0.5012  0.2470 -1.8402
  412SOL     OW 1416   4.722   2.073   3.677  0.0645 -0.4481 -0.2959
  412SOL    HW1 1417   4.692   2.083   3.772 -2.1895  0.2075 -1.0241
  412SOL    HW2 1418   4.781   2.151   3.653  0.0945 -0.2654  0.3483
  413SOL     OW 1419   1.816   2.602   2.641  0.5814 -0.2189 -0.1475
  413SOL    HW1 1420   1.789   2.665   2.713  1.5547 -1.3359  1.2658
  413SOL    HW2 1421   1.801   2.508   2.672 -1.5246 -0.7488 -2.4672
  414SOL     OW 1422   4.053   0.314   2.796  0.0199 -0.2494 -0.2227
  414SOL    HW1 1423   3.968   0.263   2.803  0.8459 -1.5091  1.2704
  414SOL    HW2 1424   4.034   0.404   2.757 -1.7400 -1.0316 -1.3005
  415SOL     OW 1425   1.602   4.415   2.388 -0.3340  0.1662  0.3341
  415SOL    HW1 1426   1.567   4.378   2.302  1.4600 -0.3454 -0.2257
  415SOL    HW2 1427   1.675   4.480   2.369  0.5539 -0.4506  1.4541
  416SOL     OW 1428   2.962   2.853   4.411 -0.6276 -0.0250 -0.5059
  416SOL    HW1 1429   2.873   2.811   4.390 -1.0364  0.6893 -0.2389
  416SOL    HW2 1430   2.947   2.936   4.465  0.1165  0.9270 -1.7227
  417SOL     OW 1431   2.514   3.479   2.572  0.6046  0.8961 -0.4786
  417SOL    HW1 1432   2.537   3.384   2.555 -1.0567  0.7327 -2.0853
  417SOL    HW2 1433   2.421   3.485   2.609 -0.0756  1.9697 -2.2537
  418SOL     OW 1434   4.259   5.128   2.221 -0.5608 -0.3608 -0.4684
  418SOL    HW1 1435   4.272   5.044   2.168 -1.3907 -0.9328  0.2127
  418SOL    HW2 1436   4.173   5.123   2.270 -0.2807  0.5946  0.1524
  419SOL     OW 1437   2.908   0.038   1.819  0.4960 -0.1257  0.3020
  419SOL    HW1 1438   3.005   0.028   1.798  0.5884 -1.3682  1.2451
  419SOL    HW2 1439   2.873   0.119   1.772  1.5081 -0.7861 -1.6854
  420SOL     OW 1440   2.224   3.496   4.281  0.5322  0.3997 -0.1977
  420SOL    HW1 1441   2.251   3.423   4.219 -0.1598  2.0210 -2.5513
  420SOL    HW2 1442   2.125   3.493   4.294  0.5167  0.8275 -0.1936
  421SOL     OW 1443   3.739   3.689   2.317 -0.1332 -0.1707 -0.0703
  421SOL    HW1 1444   3.658   3.722   2.365  0.6064 -0.5486  1.5250
  421SOL    HW2 1445   3.817   3.745   2.343  0.1251  0.2761 -1.6943
  422SOL     OW 1446   4.102   4.033   3.733  0.2351  0.5039 -0.6261
  422SOL    HW1 1447   4.125   4.130   3.725  1.9614  0.0735 -1.4699
  422SOL    HW2 1448   4.186   3.981   3.745 -0.6993 -0.8752  0.1505
  423SOL     OW 1449   2.739   1.682   3.239  0.3287  0.2708 -0.0732
  423SOL    HW1 1450   2.640   1.678   3.245  0.3634  0.6921  1.1276
  423SOL    HW2 1451   2.777   1.593   3.267  0.3108  0.4095  0.4022
  424SOL     OW 1452   2.073   1.887   2.460  0.0614  0.1529 -0.0817
  424SOL    HW1 1453   1.975   1.896   2.441  0.2642  1.3213 -0.7180
  424SOL    HW2 1454   2.105   1.800   2.424 -0.3973  0.5635 -1.5756
  425SOL     OW 1455   3.986   0.769   2.983 -0.4485 -0.6819  0.4038
  425SOL    HW1 1456   4.040   0.689   3.006 -1.6475 -1.9258 -0.8610
  425SOL    HW2 1457   4.006   0.796   2.888 -0.5652  0.0879  0.5925
  426SOL     OW 1458   1.745   2.562   3.263 -0.2255 -0.1403 -0.4934
  426SOL    HW1 1459   1.691   2.493   3.214  0.1160 -0.2989 -0.6482
  426SOL    HW2 1460   1.818   2.594   3.203 -1.1963  1.3635 -0.9450
  427SOL     OW 1461   3.119   5.618   3.265  0.4786  0.7159 -0.3997
  427SOL    HW1 1462   3.123   5.714   3.241  0.4287  0.8213 -0.0009
  427SOL    HW2 1463   3.195   5.596   3.326 -0.8721  1.0901  1.5151
  428SOL     OW 1464   4.022   2.233   3.411 -0.7352 -0.3601  0.2397
  428SOL    HW1 1465   4.033   2.238   3.312 -0.9542  0.4657  0.2478
  428SOL    HW2 1466   4.109   2.205   3.452 -0.4901 -0.1907 -0.1556
  429SOL     OW 1467   2.073   0.866   2.995 -0.6925  0.1357 -0.1131
  429SOL    HW1 1468   2.081   0.810   2.913 -0.1538  0.1882 -0.0997
  429SOL    HW2 1469   1.982   0.855   3.034  0.0934 -2.5022  1.1753
  430SOL     OW 1470   2.112   2.348   2.861  0.5969 -0.5343 -0.3878
  430SOL    HW1 1471   2.154   2.343   2.771 -0.2173 -1.0153 -0.7583
  430SOL    HW2 1472   2.152   2.424   2.912  0.2809  0.4556 -1.5638
  431SOL     OW 1473   3.070   3.350   4.913 -0.0910 -0.0721  0.0889
  431SOL    HW1 1474   3.152   3.405   4.892 -0.4221  0.4840  0.2263
  431SOL    HW2 1475   3.048   3.361   5.010  1.1169 -2.2075  0.6698
  432SOL     OW 1476   5.160   3.894   3.149 -0.1049  0.0817  0.1445
  432SOL    HW1 1477   5.173   3.991   3.168  0.1566 -0.1664  1.3386
  432SOL    HW2 1478   5.102   3.854   3.220 -2.8745 -0.0222 -2.0005
  433SOL     OW 1479   5.019   4.240   2.966 -0.1669 -0.4949 -0.1047
  433SOL    HW1 1480   4.965   4.156   2.965  0.0481 -0.6301 -0.4155
  433SOL    HW2 1481   5.043   4.265   2.872 -1.7952  0.9214 -0.1900
  434SOL     OW 1482   1.417   3.165   3.940  0.0936 -0.2521 -0.0064
  434SOL    HW1 1483   1.420   3.090   4.006  1.2485 -1.0290 -0.8802
  434SOL    HW2 1484   1.375   3.245   3.982  0.5363 -0.8059  1.5689
  435SOL     OW 1485   2.218   3.413   1.837  0.4662  0.6925 -0.3768
  435SOL    HW1 1486   2.118   3.420   1.838  0.3145 -0.4691 -2.2614
  435SOL    HW2 1487   2.248   3.361   1.917 -0.2711  2.3942  1.0569
  436SOL     OW 1488   4.296   3.157   3.836  0.9226 -0.5170  0.2890
  436SOL    HW1 1489   4.317   3.141   3.932 -0.0819 -1.1574  0.4218
  436SOL    HW2 1490   4.216   3.102   3.810  0.3232  0.6961 -0.5498
  437SOL     OW 1491   2.362   1.577   2.992  0.7269  0.7506 -0.9693
  437SOL    HW1 1492   2.279   1.522   2.986 -0.4865  2.5363 -1.2196
  437SOL    HW2 1493   2.402   1.566   3.083  0.9549 -1.0779 -1.2380
  438SOL     OW 1494   2.158   3.198   2.632  0.0824  0.5855  0.4812
  438SOL    HW1 1495   2.149   3.107   2.671  1.8782 -0.0155 -0.3884
  438SOL    HW2 1496   2.207   3.192   2.545  0.4332  2.3849  0.5111
  439SOL     OW 1497   5.049   3.554   4.047  0.2639 -0.2654  0.2493
  439SOL    HW1 1498   5.095   3.624   3.992 -0.7249 -0.2116 -0.5564
  439SOL    HW2 1499   4.950   3.562   4.032  0.1831 -2.7712 -1.0209
  440SOL     OW 1500   2.511   1.573   3.936 -0.3426  0.6544  0.4438
  440SOL    HW1 1501   2.514   1.493   3.876 -1.0002  1.2666 -0.4169
  440SOL    HW2 1502   2.600   1.619   3.934  0.1061 -0.1454  1.1000
  441SOL     OW 1503   2.617   3.668   4.003 -0.3529 -0.7476  0.3459
  441SOL    HW1 1504   2.651   3.580   3.970  0.3625 -0.7044  0.9402
  441SOL    HW2 1505   2.563   3.653   4.086 -0.2153 -0.6264  0.4573
  442SOL     OW 1506   4.714   3.032   1.988  0.3479 -0.2478  0.3661
  442SOL    HW1 1507   4.790   2.975   1.959 -1.6313 -1.3500 -3.2217
  442SOL    HW2 1508   4.628   2.980   1.980 -1.1829  2.0902  0.5611
  443SOL     OW 1509   5.658   3.067   3.403  0.4790 -0.1631 -0.1755
  443SOL    HW1 1510   5.725   2.999   3.372  1.0792 -1.2899  3.1313
  443SOL    HW2 1511   5.587   3.021   3.457 -0.8022  1.4967 -0.3800
  444SOL     OW 1512   3.484   3.809   3.778  0.6105 -0.3946  0.4719
  444SOL    HW1 1513   3.446   3.720   3.805 -0.5331  0.4176  1.6612
  444SOL    HW2 1514   3.582   3.798   3.760  0.6975 -1.7139  1.5428
  445SOL     OW 1515   0.526   2.655   3.291  0.2175 -0.0105  0.1715
  445SOL    HW1 1516   0.446   2.621   3.340  1.0598 -0.8455  1.0223
  445SOL    HW2 1517   0.541   2.598   3.210 -1.5830  1.7910 -1.5583
  446SOL     OW 1518   3.655   2.949   3.350  0.4080  1.0834  0.1404
  446SOL    HW1 1519   3.650   3.007   3.431 -0.7354  0.0180  0.8575
  446SOL    HW2 1520   3.711   2.868   3.370 -1.3954 -0.1237  0.5072
  447SOL     OW 1521   1.612   1.496   3.382  0.2996 -0.8912 -0.3532
  447SOL    HW1 1522   1.624   1.456   3.473 -2.0320  0.5255  0.6712
  447SOL    HW2 1523   1.568   1.428   3.322 -1.0060 -0.8647  0.5263
  448SOL     OW 1524   4.263   2.828   4.044  0.3784 -0.4543  0.0830
  448SOL    HW1 1525   4.298   2.769   4.117 -0.2603 -1.1228 -0.1407
  448SOL    HW2 1526   4.165   2.810   4.031  0.5647 -0.6264 -1.1942
  449SOL     OW 1527   3.738   0.693   3.092  0.1795  0.6120 -0.1197
  449SOL    HW1 1528   3.821   0.735   3.055  1.7242 -0.5716  1.8183
  449SOL    HW2 1529   3.717   0.610   3.040  2.8295 -1.5228  1.9102
  450SOL     OW 1530   2.134   4.766   2.860 -0.1478  0.0692 -0.2710
  450SOL    HW1 1531   2.114   4.759   2.957  1.4299 -0.1601  0.0704
  450SOL    HW2 1532   2.222   4.722   2.842  0.4557  1.7117 -1.4980
  451SOL     OW 1533   2.669   1.779   4.471  0.2504 -0.0816  0.7807
  451SOL    HW1 1534   2.705   1.868   4.501  0.6144  0.4691 -1.1809
  451SOL    HW2 1535   2.569   1.785   4.464  0.3718  0.6834 -0.7697
  452SOL     OW 1536   1.188   3.425   4.322 -0.3699 -0.1332  0.2979
  452SOL    HW1 1537   1.187   3.411   4.421 -1.1699  1.4034  0.5436
  452SOL    HW2 1538   1.113   3.486   4.297  1.2322  1.4498 -0.9325
  453SOL     OW 1539   1.107   2.787   4.206  0.3061  0.6498  0.3522
  453SOL    HW1 1540   1.030   2.726   4.185  0.7246 -0.1110  0.9592
  453SOL    HW2 1541   1.150   2.816   4.121  0.5437 -0.4918  0.0678
  454SOL     OW 1542   4.953   3.959   3.776 -0.3011 -0.0962 -0.3648
  454SOL    HW1 1543   5.005   3.901   3.838 -1.8093 -0.6514  0.4537
  454SOL    HW2 1544   4.856   3.958   3.804 -0.4258  2.7076 -0.3830
  455SOL     OW 1545   1.772   2.675   2.386  0.1538  0.0519  0.0503
  455SOL    HW1 1546   1.855   2.682   2.332  1.1170  0.4188  1.5084
  455SOL    HW2 1547   1.795   2.645   2.479 -0.9264  2.8928  1.3673
  456SOL     OW 1548   5.695   3.239   2.962 -0.1433 -0.0534 -0.0542
  456SOL    HW1 1549   5.788   3.217   2.992 -0.0471 -1.2930 -1.1345
  456SOL    HW2 1550   5.635   3.245   3.042  1.0905  2.1681  0.7919
  457SOL     OW 1551   0.902   3.686   3.805 -0.1481  0.3009 -0.2105
  457SOL    HW1 1552   0.836   3.660   3.734 -0.5074 -0.2200  0.3034
  457SOL    HW2 1553   0.987   3.714   3.761 -0.1835 -0.5311 -0.8417
  458SOL     OW 1554   3.259   1.727   1.771  0.0895 -0.1116  0.1865
  458SOL    HW1 1555   3.213   1.803   1.725  0.3372  0.5504  1.0190
  458SOL    HW2 1556   3.273   1.750   1.867  4.6023  0.9235 -0.4961
  459SOL     OW 1557   0.714   3.560   3.636  0.0040  0.4643 -0.0720
  459SOL    HW1 1558   0.728   3.461   3.637  0.1688  0.4872 -0.0980
  459SOL    HW2 1559   0.634   3.582   3.692 -0.1343  0.3010 -0.2047
  460SOL     OW 1560   4.336   3.670   3.074  0.0517 -0.2191  0.3343
  460SOL    HW1 1561   4.347   3.759   3.030 -0.9301  0.8780  2.1898
  460SOL    HW2 1562   4.298   3.683   3.165  2.1739 -2.3477  1.6526
  461SOL     OW 1563   1.595   3.906   2.812 -0.2240 -0.0361  0.3899
  461SOL    HW1 1564   1.679   3.960   2.820 -1.0379  1.3634 -0.0332
  461SOL    HW2 1565   1.601   3.847   2.732 -0.4536  1.6916 -0.9825
  462SOL     OW 1566   3.823   3.207   2.190 -0.7119  0.1233 -0.4728
  462SOL    HW1 1567   3.795   3.297   2.222 -0.8255 -0.1274  0.1450
  462SOL    HW2 1568   3.784   3.190   2.100 -0.2189  0.9230 -0.8506
  463SOL     OW 1569   2.808   0.320   2.772  0.2151  0.4347 -0.0613
  463SOL    HW1 1570   2.854   0.239   2.809 -0.6300  0.0173  0.0943
  463SOL    HW2 1571   2.721   0.293   2.731  0.1085  1.2109 -0.3700
  464SOL     OW 1572   1.722   4.321   2.813 -0.4156 -0.5640 -0.0778
  464SOL    HW1 1573   1.796   4.280   2.867 -0.0936  0.1716  0.0486
  464SOL    HW2 1574   1.680   4.395   2.866  0.4957  0.7733 -1.1646
  465SOL     OW 1575   2.939   5.503   1.788 -0.3607 -0.2263 -0.2153
  465SOL    HW1 1576   2.993   5.543   1.714  1.1215 -0.9254  0.4420
  465SOL    HW2 1577   2.855   5.556   1.800 -0.6402 -0.1046 -2.3717
  466SOL     OW 1578   3.729   3.126   1.944 -0.1539  0.2614  0.1111
  466SOL    HW1 1579   3.719   3.036   1.903  0.3251  1.1308 -2.1121
  466SOL    HW2 1580   3.780   3.185   1.881 -1.1951  2.3297  1.0900
  467SOL     OW 1581   4.684   3.132   3.901  0.6636 -0.2806 -0.3784
  467SOL    HW1 1582   4.607   3.069   3.895  0.9763 -0.7850  0.5860
  467SOL    HW2 1583   4.697   3.178   3.813 -0.5823 -0.3566 -0.6172
  468SOL     OW 1584   1.643   3.428   1.843 -0.0818  0.0709  0.0580
  468SOL    HW1 1585   1.602   3.466   1.926 -1.0619 -0.3555 -0.2188
  468SOL    HW2 1586   1.631   3.329   1.843 -1.7985  0.2316 -1.4749
  469SOL     OW 1587   2.066   4.501   2.210 -0.0687 -0.1416 -0.1681
  469SOL    HW1 1588   2.114   4.460   2.132  0.0742 -0.0008 -0.1532
  469SOL    HW2 1589   2.117   4.482   2.294 -0.8766 -1.4191  0.0781
  470SOL     OW 1590   4.370   3.885   3.675  0.2489  0.2804  0.0463
  470SOL    HW1 1591   4.351   3.787   3.685 -0.8128  0.4829  0.0791
  470SOL    HW2 1592   4.450   3.908   3.730  0.4020 -0.5354  0.1797
  471SOL     OW 1593   2.525   0.052   2.377 -0.6523 -0.4034 -0.6771
  471SOL    HW1 1594   2.447   0.110   2.355 -0.7477 -0.4660 -0.4992
  471SOL    HW2 1595   2.508  -0.040   2.342 -1.7674 -1.0997  1.5276
  472SOL     OW 1596   3.604   2.227   4.148 -0.0559 -0.3266 -0.1400
  472SOL    HW1 1597   3.607   2.227   4.248 -1.4766 -0.6947 -0.0668
  472SOL    HW2 1598   3.678   2.285   4.113  0.3758 -0.0722  1.1208
  473SOL     OW 1599   4.974   3.868   2.930 -0.3394 -0.2097 -0.2571
  473SOL    HW1 1600   4.985   3.774   2.897  0.0271  0.4563 -2.1922
  473SOL    HW2 1601   5.030   3.881   3.011 -2.5865 -2.4310  1.8388
  474SOL     OW 1602   3.542   5.438   2.021  0.4327 -0.0850 -0.5152
  474SOL    HW1 1603   3.503   5.487   2.098 -0.4562  1.1057 -1.6792
  474SOL    HW2 1604   3.619   5.382   2.052  0.4383  0.7937  1.1100
  475SOL     OW 1605   2.148   3.918   4.328  0.1532 -0.1517 -0.2269
  475SOL    HW1 1606   2.221   3.911   4.259 -0.3937 -0.0209 -0.8306
  475SOL    HW2 1607   2.189   3.924   4.418  0.8897 -0.3129 -0.5414
  476SOL     OW 1608   5.386   2.379   3.985 -0.3577  0.1791  0.1454
  476SOL    HW1 1609   5.446   2.300   3.976  1.8627  1.6632  1.1474
  476SOL    HW2 1610   5.425   2.443   4.050 -1.9177  2.2742 -0.8571
  477SOL     OW 1611   3.165   2.479   4.618  0.0499 -0.0652 -0.2924
  477SOL    HW1 1612   3.209   2.402   4.663  1.7958  0.7125 -0.5982
  477SOL    HW2 1613   3.136   2.546   4.687  0.3055 -0.0941 -0.1583
  478SOL     OW 1614   2.605   1.811   2.429 -0.2755 -0.7083 -0.2685
  478SOL    HW1 1615   2.687   1.801   2.372 -0.6299 -0.8402 -0.7587
  478SOL    HW2 1616   2.547   1.883   2.391 -0.3968 -0.6302  0.0674
  479SOL     OW 1617   3.116   0.826   2.571 -0.3027 -0.0933 -0.3820
  479SOL    HW1 1618   3.199   0.783   2.607 -1.4008 -1.7946  0.2897
  479SOL    HW2 1619   3.042   0.815   2.638 -0.7369  2.7031 -0.2978
  480SOL     OW 1620   4.111   4.119   1.471 -0.0126 -0.2843 -0.0546
  480SOL    HW1 1621   4.054   4.198   1.448 -0.1661 -0.4849 -0.3661
  480SOL    HW2 1622   4.083   4.041   1.415 -0.0161 -0.6245  0.4166
  481SOL     OW 1623   1.009   4.020   3.494  0.0108 -0.3992  0.2706
  481SOL    HW1 1624   1.024   4.067   3.408 -1.9156  0.6756  0.4529
  481SOL    HW2 1625   0.915   3.984   3.496 -0.8866  1.7115  2.7914
  482SOL     OW 1626   4.910   4.151   2.308  0.0830  0.0342 -0.3403
  482SOL    HW1 1627   4.953   4.061   2.319 -0.1433 -0.1038 -0.5677
  482SOL    HW2 1628   4.926   4.184   2.215 -0.5850 -0.1730 -0.5384
  483SOL     OW 1629   4.163   1.514   3.338  0.0877 -0.1935  0.3690
  483SOL    HW1 1630   4.166   1.433   3.278 -0.3009 -0.3868  0.6077
  483SOL    HW2 1631   4.252   1.558   3.338  0.0080 -0.0053 -0.6145
  484SOL     OW 1632   1.844   3.023   2.618 -0.1934 -0.2169  0.7334
  484SOL    HW1 1633   1.851   2.979   2.708  0.7086 -0.6782  0.4551
  484SOL    HW2 1634   1.835   3.121   2.631 -1.0438 -0.3638  1.3441
  485SOL     OW 1635   4.976   2.990   1.722 -0.1508 -0.2996 -0.0154
  485SOL    HW1 1636   4.969   3.087   1.745  1.0499  0.7466 -3.4690
  485SOL    HW2 1637   4.922   2.972   1.640  0.5760 -2.3013 -0.1039
  486SOL     OW 1638   2.922   2.314   0.914 -0.5172  0.6165 -0.0225
  486SOL    HW1 1639   3.001   2.256   0.931 -1.5113 -1.3771 -1.6336
  486SOL    HW2 1640   2.934   2.360   0.826 -2.0503 -1.5731 -1.4838
  487SOL     OW 1641   3.777   2.707   3.847  0.2240  0.3870  0.3844
  487SOL    HW1 1642   3.794   2.789   3.793  0.1959  0.2973  0.2371
  487SOL    HW2 1643   3.687   2.670   3.823  0.1865  0.3791  0.5350
  488SOL     OW 1644   4.488   4.538   3.297 -0.4389 -0.4173  0.3051
  488SOL    HW1 1645   4.414   4.510   3.235 -0.2170 -2.0528  0.7096
  488SOL    HW2 1646   4.572   4.551   3.244 -0.3976 -1.2046  0.1584
  489SOL     OW 1647   3.098   0.972   2.317 -0.6366  0.6697 -0.2117
  489SOL    HW1 1648   3.090   0.917   2.400 -2.7905  0.1316 -0.7244
  489SOL    HW2 1649   3.036   0.936   2.248 -0.0750  2.1021 -1.5074
  490SOL     OW 1650   0.916   3.515   4.261  0.1419 -0.3994 -0.2206
  490SOL    HW1 1651   0.882   3.588   4.203 -0.1679 -0.3221  0.0520
  490SOL    HW2 1652   0.850   3.498   4.334 -0.6083 -2.0831 -1.2239
  491SOL     OW 1653   1.045   4.080   3.210  0.2232  0.3182  0.0837
  491SOL    HW1 1654   1.050   4.131   3.124  0.3858  0.2902  0.0767
  491SOL    HW2 1655   1.129   4.029   3.223  0.1055  0.1389  0.1466
  492SOL     OW 1656   4.162   3.727   3.322  0.1654  0.1183  0.4665
  492SOL    HW1 1657   4.089   3.735   3.389  0.8925  0.9677  1.1724
  492SOL    HW2 1658   4.143   3.786   3.244  0.6558  1.2599  1.1858
  493SOL     OW 1659   0.848   2.755   3.161 -0.1733  0.0686 -0.0051
  493SOL    HW1 1660   0.831   2.812   3.241 -1.3201  1.6742 -1.3368
  493SOL    HW2 1661   0.946   2.735   3.155  0.0634  0.7968  1.2018
  494SOL     OW 1662   2.996   4.282   1.330  0.6633 -0.2051  0.4424
  494SOL    HW1 1663   3.081   4.282   1.278 -0.4747 -1.4518 -1.5431
  494SOL    HW2 1664   2.925   4.330   1.278 -1.4860 -4.5148 -1.1126
  495SOL     OW 1665   2.733   3.406   5.546 -0.2735  0.4466  0.2271
  495SOL    HW1 1666   2.774   3.359   5.624  0.6548  0.8609 -0.0077
  495SOL    HW2 1667   2.639   3.432   5.570 -0.9999 -1.8825  0.2193
  496SOL     OW 1668   2.754   1.965   3.193 -0.1133 -0.1577  0.0266
  496SOL    HW1 1669   2.746   1.874   3.235 -0.0886 -0.2238 -0.1113
  496SOL    HW2 1670   2.702   1.966   3.108  0.7684 -0.3742 -0.5274
  497SOL     OW 1671   4.219   5.564   1.562 -0.5300  0.3377  0.2798
  497SOL    HW1 1672   4.213   5.465   1.551 -1.6651  0.2541  1.3657
  497SOL    HW2 1673   4.197   5.588   1.657 -1.8157  1.7285 -0.3178
  498SOL     OW 1674   3.058   1.264   3.258 -0.1245 -0.8349 -0.7271
  498SOL    HW1 1675   3.004   1.192   3.302 -0.0251 -1.3631 -1.4372
  498SOL    HW2 1676   3.088   1.231   3.168  1.2494 -0.5058 -0.4144
  499SOL     OW 1677   0.637   3.218   3.014  0.4624  0.1441 -0.1520
  499SOL    HW1 1678   0.665   3.122   3.015 -0.4632 -0.1649  2.1741
  499SOL    HW2 1679   0.554   3.228   2.960  0.0434 -0.5513  0.3472
  500SOL     OW 1680   2.088   1.635   4.160 -0.0925 -0.0329 -0.2329
  500SOL    HW1 1681   2.173   1.630   4.212  0.0017 -1.8183 -0.4809
  500SOL    HW2 1682   2.032   1.711   4.194  0.8541  0.0998  1.0843
  501SOL     OW 1683   3.174   2.825   1.223 -0.2878 -0.1753 -0.5928
  501SOL    HW1 1684   3.089   2.869   1.196 -0.7587 -1.9090 -2.0657
  501SOL    HW2 1685   3.250   2.868   1.174 -0.2626  1.3336  0.6789
  502SOL     OW 1686   3.018   3.127   4.075  0.3478 -0.2484  0.1236
  502SOL    HW1 1687   2.953   3.199   4.100  0.6057 -0.0062  0.1038
  502SOL    HW2 1688   3.111   3.160   4.092  0.4205 -1.1914  1.7379
  503SOL     OW 1689   5.333   3.174   4.286 -0.3293  0.1771  0.0485
  503SOL    HW1 1690   5.324   3.234   4.366  3.0329 -0.6564  1.2252
  503SOL    HW2 1691   5.368   3.227   4.209 -2.5978  0.7635 -0.6513
  504SOL     OW 1692   2.476   0.874   2.406  0.4879 -0.4716  0.0618
  504SOL    HW1 1693   2.569   0.876   2.371 -0.6597  0.2442 -3.3354
  504SOL    HW2 1694   2.417   0.929   2.347 -2.0193 -0.3249  2.4665
  505SOL     OW 1695   4.562   3.956   2.134  0.1176 -0.2491 -0.1764
  505SOL    HW1 1696   4.575   4.055   2.129  0.7866 -0.2514  1.1511
  505SOL    HW2 1697   4.651   3.912   2.148 -0.5191 -0.7150  3.2442
  506SOL     OW 1698   1.495   2.194   3.805  0.1668 -0.1886  0.7868
  506SOL    HW1 1699   1.511   2.278   3.754 -0.4533  1.2167  2.7418
  506SOL    HW2 1700   1.479   2.119   3.742 -0.8598  1.4869 -1.0541
  507SOL     OW 1701   3.952   2.370   1.659 -0.3060  0.4923 -0.0727
  507SOL    HW1 1702   3.961   2.371   1.559  1.7655 -0.1076  0.0706
  507SOL    HW2 1703   4.007   2.444   1.698  1.5187 -1.2021  0.7452
  508SOL     OW 1704   1.666   1.740   3.304 -0.3773  0.6830  0.3019
  508SOL    HW1 1705   1.725   1.798   3.360 -0.7458 -0.5223  2.0430
  508SOL    HW2 1706   1.650   1.654   3.353 -1.6825  0.0387 -1.1810
  509SOL     OW 1707   3.423   2.249   1.387 -0.3283  0.6953 -0.4079
  509SOL    HW1 1708   3.325   2.241   1.369 -0.2578  0.0383 -0.5451
  509SOL    HW2 1709   3.443   2.215   1.479  0.0175 -1.1007 -1.0960
  510SOL     OW 1710   3.947   3.862   3.895  0.1032  0.2715  0.5489
  510SOL    HW1 1711   4.002   3.932   3.851 -0.5171  0.1260 -0.4905
  510SOL    HW2 1712   4.006   3.787   3.924  0.4420  0.0243 -0.7307
  511SOL     OW 1713   3.564   0.071   1.508 -0.1622  0.0273 -0.2165
  511SOL    HW1 1714   3.621   0.129   1.450 -0.4109  1.1128  0.5963
  511SOL    HW2 1715   3.494   0.026   1.452  0.1939  0.3128 -0.8948
  512SOL     OW 1716   5.086   2.243   3.373  0.2004 -0.0585 -0.6611
  512SOL    HW1 1717   5.055   2.148   3.368  0.7601 -0.2658 -0.3175
  512SOL    HW2 1718   5.164   2.248   3.435 -0.3740  0.7658  0.0152
  513SOL     OW 1719   1.149   3.743   3.346  0.3318 -0.2099 -0.4321
  513SOL    HW1 1720   1.068   3.727   3.290 -0.6267  0.1942  0.7893
  513SOL    HW2 1721   1.178   3.839   3.335  0.7496 -0.3963 -0.9900
  514SOL     OW 1722   3.955   2.447   3.602 -0.8189 -0.5673  0.7695
  514SOL    HW1 1723   3.875   2.506   3.594  0.0345  0.5334 -0.0193
  514SOL    HW2 1724   3.957   2.384   3.525 -0.6781 -0.2632  0.5210
  515SOL     OW 1725   2.624   2.696   2.414 -0.0677 -0.4849 -0.0520
  515SOL    HW1 1726   2.559   2.621   2.423 -0.4159  0.0373  2.5088
  515SOL    HW2 1727   2.714   2.659   2.389 -0.5748 -1.5673 -0.3434
  516SOL     OW 1728   4.175   2.993   1.870 -0.5479 -0.2533  0.2280
  516SOL    HW1 1729   4.258   3.020   1.918 -0.0337 -0.3737 -0.5744
  516SOL    HW2 1730   4.120   3.074   1.849 -0.1797 -0.0691 -0.0447
  517SOL     OW 1731   3.983   5.315   2.877  0.5187 -0.3245  0.0608
  517SOL    HW1 1732   3.890   5.321   2.913  0.0552 -0.5137 -1.0720
  517SOL    HW2 1733   4.046   5.299   2.953 -0.6422 -2.6908  0.6262
  518SOL     OW 1734   3.115   4.027   2.931 -0.3735 -0.1616 -0.5452
  518SOL    HW1 1735   3.174   4.091   2.980 -0.1809  0.5247 -1.6396
  518SOL    HW2 1736   3.023   4.030   2.971  0.5049 -2.0014  1.8588
  519SOL     OW 1737   1.561   3.565   4.154  0.6206 -0.0174 -0.5131
  519SOL    HW1 1738   1.610   3.651   4.165  1.9286 -0.7789 -0.2277
  519SOL    HW2 1739   1.627   3.490   4.148 -0.4863 -0.9796 -1.0003
  520SOL     OW 1740   3.491   1.455   1.911 -0.3106 -0.1157 -0.8979
  520SOL    HW1 1741   3.394   1.475   1.908 -0.3352 -0.1235 -0.2179
  520SOL    HW2 1742   3.504   1.358   1.933 -0.1584 -0.3172 -1.8363
  521SOL     OW 1743   2.600   0.872   3.228 -0.0708 -0.1831  0.1123
  521SOL    HW1 1744   2.548   0.910   3.151 -1.5318  1.6771  1.9136
  521SOL    HW2 1745   2.697   0.885   3.211 -0.3651  0.3749 -1.3027
  522SOL     OW 1746   3.162   2.224   1.005 -0.2036 -0.2854 -0.3314
  522SOL    HW1 1747   3.202   2.137   1.035  0.1887  0.3813  1.1150
  522SOL    HW2 1748   3.214   2.300   1.043 -1.4964  0.5959 -0.2515
  523SOL     OW 1749   1.108   2.370   2.917  0.3549 -0.4622  0.2645
  523SOL    HW1 1750   1.030   2.308   2.909 -0.4338  0.5216  0.2050
  523SOL    HW2 1751   1.118   2.398   3.012  0.8143 -0.7923  0.3194
  524SOL     OW 1752   2.385   2.004   2.850  0.7950 -0.1549 -0.2218
  524SOL    HW1 1753   2.367   1.909   2.825  1.9287 -0.9011  1.5846
  524SOL    HW2 1754   2.318   2.034   2.917  0.8789  0.0767 -0.2400
  525SOL     OW 1755   2.824   1.463   2.924 -0.7617 -0.8226 -0.9030
  525SOL    HW1 1756   2.801   1.393   2.991 -0.7988  0.0878  0.0633
  525SOL    HW2 1757   2.743   1.520   2.907 -0.5767 -0.6558 -1.2370
  526SOL     OW 1758   4.717   4.204   1.894  0.4820 -0.4735 -0.3878
  526SOL    HW1 1759   4.695   4.220   1.990  0.3288  0.0893 -0.5118
  526SOL    HW2 1760   4.637   4.225   1.838  0.5767 -0.7788 -0.6392
  527SOL     OW 1761   2.296   3.515   1.589  0.3255  0.4949  0.7441
  527SOL    HW1 1762   2.217   3.574   1.603  0.3118  0.1617  2.1521
  527SOL    HW2 1763   2.285   3.431   1.641  1.4948  0.3248  0.7602
  528SOL     OW 1764   4.133   0.025   1.509 -0.8542 -0.2305  0.5899
  528SOL    HW1 1765   4.169  -0.068   1.519  0.2858 -0.0457 -1.1531
  528SOL    HW2 1766   4.093   0.055   1.595  0.4284 -1.6490  1.7355
  529SOL     OW 1767   2.611   1.611   2.888 -0.1632 -0.1011 -0.5266
  529SOL    HW1 1768   2.515   1.593   2.910 -0.1067  0.2366  0.0310
  529SOL    HW2 1769   2.616   1.667   2.806 -0.4697  0.3508 -0.2428
  530SOL     OW 1770   3.061   3.479   0.992 -0.0132 -0.6004 -0.6026
  530SOL    HW1 1771   3.053   3.420   1.072 -0.0964 -0.3388 -0.4161
  530SOL    HW2 1772   3.124   3.554   1.013 -1.2963  0.4083 -0.2043
  531SOL     OW 1773   3.529   0.994   2.432  0.0577 -0.1360 -0.2681
  531SOL    HW1 1774   3.558   0.924   2.367 -0.7113 -0.5465 -0.1752
  531SOL    HW2 1775   3.471   1.061   2.385  0.0193 -0.0834 -0.1460
  532SOL     OW 1776   2.875   3.801   5.321  0.2536  0.7465 -0.6823
  532SOL    HW1 1777   2.846   3.890   5.286 -2.1188 -0.3949 -1.8401
  532SOL    HW2 1778   2.962   3.777   5.279  0.1640  1.8458 -1.5601
  533SOL     OW 1779   2.755   1.196   2.774 -0.6274  0.7836 -0.0606
  533SOL    HW1 1780   2.813   1.278   2.764 -0.2681  0.4708 -0.6009
  533SOL    HW2 1781   2.721   1.169   2.684  0.5055 -0.5510 -0.1307
  534SOL     OW 1782   5.322   2.245   3.532  0.3018 -0.0973 -0.1869
  534SOL    HW1 1783   5.295   2.178   3.602  0.2570  1.7139  1.6019
  534SOL    HW2 1784   5.291   2.336   3.559 -0.8929  0.5533 -3.2359
  535SOL     OW 1785   4.165   3.643   3.955  0.0100 -0.5109 -0.1409
  535SOL    HW1 1786   4.193   3.645   4.051 -2.0970 -3.3155  0.6448
  535SOL    HW2 1787   4.242   3.611   3.900  0.7793 -0.3252  0.7889
  536SOL     OW 1788   3.458   0.141   1.776  0.7425  0.2359  0.4846
  536SOL    HW1 1789   3.504   0.150   1.687  0.9192  1.4892  0.6727
  536SOL    HW2 1790   3.513   0.082   1.835  1.1919  0.2620  0.1068
  537SOL     OW 1791   0.392   2.876   3.115 -0.1303  0.7810 -0.6703
  537SOL    HW1 1792   0.441   2.917   3.039 -0.7169 -1.2144 -2.2162
  537SOL    HW2 1793   0.439   2.792   3.144 -0.2688  1.1657  0.7624
  538SOL     OW 1794   3.365   4.199   3.322  0.1561 -0.3942 -0.4817
  538SOL    HW1 1795   3.465   4.200   3.323  0.1781 -1.2610  0.1434
  538SOL    HW2 1796   3.332   4.194   3.416 -0.5406  1.8443 -0.5666
  539SOL     OW 1797   4.138   5.396   2.018 -0.1117  0.6686 -0.0661
  539SOL    HW1 1798   4.077   5.317   2.018  1.3107 -0.4852 -1.6446
  539SOL    HW2 1799   4.227   5.369   2.056  0.5143  1.4052 -0.9812
  540SOL     OW 1800   4.357   3.524   3.394 -0.9352  0.2470  0.4387
  540SOL    HW1 1801   4.289   3.597   3.392  0.3541  1.4805 -0.0405
  540SOL    HW2 1802   4.447   3.562   3.372 -0.2711 -1.5413 -0.1400
  541SOL     OW 1803   1.784   2.181   3.875 -0.1947  0.1238 -0.4768
  541SOL    HW1 1804   1.830   2.107   3.827  0.8923  1.6912 -1.9358
  541SOL    HW2 1805   1.685   2.167   3.870 -0.0025 -1.5208 -0.1790
  542SOL     OW 1806   2.828   3.384   4.165 -0.1674 -0.0967 -0.6756
  542SOL    HW1 1807   2.801   3.406   4.072  0.6340 -1.0856 -1.1644
  542SOL    HW2 1808   2.814   3.464   4.223 -3.0981 -0.2160 -1.0690
  543SOL     OW 1809   3.239   2.838   0.958  0.2832 -0.3843 -0.0347
  543SOL    HW1 1810   3.186   2.754   0.944 -2.0338  1.1186 -0.9523
  543SOL    HW2 1811   3.323   2.834   0.904 -1.1140 -1.0327 -2.2620
  544SOL     OW 1812   3.436   3.016   0.695 -0.3079  0.4791 -0.5103
  544SOL    HW1 1813   3.476   3.036   0.605 -4.2790  0.9815 -2.3795
  544SOL    HW2 1814   3.350   3.065   0.704  0.2857  1.1383  4.0574
  545SOL     OW 1815   2.159   1.939   3.744  0.3042  0.3935 -0.8126
  545SOL    HW1 1816   2.059   1.930   3.754  0.4558 -0.2477  0.3610
  545SOL    HW2 1817   2.179   2.005   3.672 -0.9813  1.3668 -0.3312
  546SOL     OW 1818   2.125   2.792   1.680 -0.5867 -0.2886  0.2710
  546SOL    HW1 1819   2.178   2.727   1.625  0.9055  0.0756  1.1984
  546SOL    HW2 1820   2.107   2.752   1.770 -0.5921  0.1711  0.4764
  547SOL     OW 1821   1.882   3.595   4.936  0.0966  0.5486  0.2559
  547SOL    HW1 1822   1.980   3.575   4.938  0.1695  0.8162 -0.3422
  547SOL    HW2 1823   1.863   3.658   4.861 -0.1889  2.4186  1.8294
  548SOL     OW 1824   2.886   1.072   3.394  0.8775 -0.0057  0.2121
  548SOL    HW1 1825   2.905   0.995   3.333  0.2014 -0.1122  0.1300
  548SOL    HW2 1826   2.824   1.043   3.467  1.7618  0.0939  1.0295
  549SOL     OW 1827   2.867   2.074   2.192  0.1983 -0.0574  0.1106
  549SOL    HW1 1828   2.894   2.035   2.280  1.5743  1.6436  0.5161
  549SOL    HW2 1829   2.871   2.174   2.198 -0.4095  0.1114 -1.6770
  550SOL     OW 1830   4.039   0.980   3.200 -0.4398 -0.1424 -0.1629
  550SOL    HW1 1831   4.012   0.905   3.140  1.6325  0.0389 -1.4488
  550SOL    HW2 1832   3.958   1.017   3.245 -1.7264 -2.0313 -0.7872
  551SOL     OW 1833   2.821   5.373   2.796 -0.0651 -0.0738  0.6201
  551SOL    HW1 1834   2.766   5.332   2.723  1.7934  0.9005 -1.4378
  551SOL    HW2 1835   2.835   5.470   2.776  0.0366  0.3565  2.6116
  552SOL     OW 1836   3.025   5.225   2.707 -0.3657  0.5576 -0.5397
  552SOL    HW1 1837   2.987   5.166   2.636 -1.5960 -1.4550  1.6593
  552SOL    HW2 1838   2.951   5.270   2.756  0.4003  1.1286  0.1231
  553SOL     OW 1839   0.081   3.756   3.399 -0.1294  0.0543 -0.2872
  553SOL    HW1 1840   0.156   3.800   3.350 -0.9887 -0.1309 -1.8242
  553SOL    HW2 1841   0.029   3.699   3.336 -2.3341  1.1567  0.4224
  554SOL     OW 1842   4.473   5.241   2.880 -0.2381 -0.2662  0.2955
  554SOL    HW1 1843   4.398   5.181   2.909  0.1860 -0.6158  0.6806
  554SOL    HW2 1844   4.448   5.336   2.900 -0.3090 -0.4309  1.0303
  555SOL     OW 1845   1.527   3.831   3.518 -0.0936 -0.1338 -0.0452
  555SOL    HW1 1846   1.493   3.780   3.439  0.7180 -0.5881 -0.1166
  555SOL    HW2 1847   1.482   3.797   3.601 -0.8902  0.2919 -0.3006
  556SOL     OW 1848   3.561   4.144   2.820  0.7172 -0.2271 -0.6560
  556SOL    HW1 1849   3.606   4.122   2.907  0.7643  1.7681 -0.1056
  556SOL    HW2 1850   3.470   4.104   2.819 -0.1538  1.4940  1.3385
  557SOL     OW 1851   3.882   4.789   2.587  0.0774  0.2430  0.0765
  557SOL    HW1 1852   3.945   4.759   2.516 -2.2462 -0.6455 -1.7658
  557SOL    HW2 1853   3.874   4.888   2.585 -1.4424  0.1554 -2.4232
  558SOL     OW 1854   5.419   2.842   3.224 -0.0302 -0.3851  0.0392
  558SOL    HW1 1855   5.463   2.752   3.221  1.8119  0.4924 -0.5024
  558SOL    HW2 1856   5.488   2.913   3.218 -1.2062  1.1706  2.9940
  559SOL     OW 1857   0.049   2.618   4.085  0.1727  0.6690 -0.2723
  559SOL    HW1 1858   0.016   2.657   4.171 -0.5298  1.4357 -0.8680
  559SOL    HW2 1859   0.030   2.520   4.083 -3.0343  1.1993 -0.9683
  560SOL     OW 1860   2.292   2.743   2.917 -0.0685  0.2373  0.8168
  560SOL    HW1 1861   2.302   2.707   2.824 -2.0352  1.3488  0.1325
  560SOL    HW2 1862   2.369   2.804   2.937 -0.6314  1.5588 -0.8654
  561SOL     OW 1863   2.603   4.750   2.974  0.0050 -0.6885  0.2822
  561SOL    HW1 1864   2.648   4.676   3.025 -0.6153 -0.4051  1.2799
  561SOL    HW2 1865   2.654   4.835   2.988 -0.5441 -0.4667  1.0247
  562SOL     OW 1866   2.639   2.358   4.236  0.3066 -0.2498 -0.1272
  562SOL    HW1 1867   2.624   2.331   4.141 -1.8328 -2.2038  0.6601
  562SOL    HW2 1868   2.704   2.433   4.239 -0.9957  1.1845 -3.2846
  563SOL     OW 1869   1.937   3.090   5.178 -0.7665  0.3247 -0.0929
  563SOL    HW1 1870   1.845   3.124   5.197 -0.0703  1.1077  2.2729
  563SOL    HW2 1871   1.999   3.168   5.171 -0.1210 -0.2376 -0.6853
  564SOL     OW 1872   4.937   2.850   1.958 -0.7121  0.8118 -0.2139
  564SOL    HW1 1873   4.960   2.882   1.865 -2.4083 -2.6743 -2.0052
  564SOL    HW2 1874   5.021   2.848   2.013  0.4148  2.6213 -1.7298
  565SOL     OW 1875   2.407   2.523   2.387 -0.4076  0.2065  0.0755
  565SOL    HW1 1876   2.475   2.453   2.363 -2.4404 -1.7347 -0.3947
  565SOL    HW2 1877   2.316   2.489   2.363 -1.4468  3.4537 -1.0587
  566SOL     OW 1878   4.055   2.581   3.826 -0.5599  0.7803 -0.1900
  566SOL    HW1 1879   3.985   2.649   3.847 -0.2689  0.9758  0.1497
  566SOL    HW2 1880   4.026   2.528   3.745 -1.2916  0.5760  0.1975
  567SOL     OW 1881   3.584   3.811   2.755  0.3992 -0.7982  0.7058
  567SOL    HW1 1882   3.528   3.881   2.800 -0.9492 -0.7116 -1.0131
  567SOL    HW2 1883   3.537   3.778   2.674  1.4862 -2.9826  0.8816
  568SOL     OW 1884   4.114   1.799   3.124 -0.1297 -0.0300 -0.1272
  568SOL    HW1 1885   4.164   1.728   3.075 -0.0285 -0.1613  0.1617
  568SOL    HW2 1886   4.177   1.846   3.187  0.3805  1.8300 -1.8976
  569SOL     OW 1887   0.168   3.326   2.744 -0.0558  0.4960  0.2840
  569SOL    HW1 1888   0.097   3.279   2.798 -0.3580 -1.4002 -1.6417
  569SOL    HW2 1889   0.125   3.376   2.670  0.4940  1.4660  0.5994
  570SOL     OW 1890   2.876   2.295   4.665  0.0556 -0.0718  0.3191
  570SOL    HW1 1891   2.932   2.299   4.582 -0.1254  1.7407  0.2408
  570SOL    HW2 1892   2.791   2.246   4.645 -0.6005  1.4924 -1.0193
  571SOL     OW 1893   0.417   3.171   2.844 -0.1678 -0.0208  0.2245
  571SOL    HW1 1894   0.337   3.220   2.808 -0.0405 -0.3163 -0.4924
  571SOL    HW2 1895   0.400   3.073   2.838  0.3187 -0.0890 -0.1138
  572SOL     OW 1896   3.957   5.197   2.056  0.1565  0.4829 -0.9049
  572SOL    HW1 1897   3.888   5.266   2.082  1.1626  1.3320 -0.4235
  572SOL    HW2 1898   3.971   5.135   2.132 -0.2278  0.1779 -1.0806
  573SOL     OW 1899   3.826   5.723   2.788 -0.1507 -0.6155  0.0357
  573SOL    HW1 1900   3.763   5.792   2.751  1.0641  0.4023 -0.2188
  573SOL    HW2 1901   3.778   5.666   2.854 -1.4011 -0.0465 -0.3560
  574SOL     OW 1902   4.089   2.770   2.030  0.3064  0.6296  0.1610
  574SOL    HW1 1903   4.038   2.819   2.101  0.5040 -0.7202  1.2633
  574SOL    HW2 1904   4.105   2.832   1.953 -1.1461  1.7010  0.6813
  575SOL     OW 1905   2.516   1.485   4.192  0.2282  0.8864  0.5482
  575SOL    HW1 1906   2.525   1.516   4.098 -0.8085 -0.0225  0.1221
  575SOL    HW2 1907   2.600   1.439   4.220  0.8303  1.8454  0.3447
  576SOL     OW 1908   0.989   3.601   3.153  0.1761  0.0799  0.0319
  576SOL    HW1 1909   0.904   3.599   3.100  1.3250 -1.2863 -1.8947
  576SOL    HW2 1910   1.026   3.508   3.159  1.5298  0.6408  0.8205
  577SOL     OW 1911   4.098   3.893   3.106  0.5972  0.2426  0.0292
  577SOL    HW1 1912   4.051   3.981   3.109  0.0163 -0.0331 -0.6039
  577SOL    HW2 1913   4.050   3.833   3.041  0.4177 -0.8650  1.1450
  578SOL     OW 1914   3.338   0.685   2.707  0.0253  0.0625  0.3267
  578SOL    HW1 1915   3.379   0.776   2.712 -0.7380  0.3502  1.6611
  578SOL    HW2 1916   3.345   0.640   2.796  2.1024 -1.9838 -0.7341
  579SOL     OW 1917   5.111   3.104   3.884 -0.3944  0.2761 -0.1155
  579SOL    HW1 1918   5.084   3.172   3.953  1.2981 -0.4923  1.4077
  579SOL    HW2 1919   5.055   3.022   3.896  0.0353  0.0657  0.5199
  580SOL     OW 1920   5.611   3.793   3.710  0.0943  0.0685  0.3795
  580SOL    HW1 1921   5.614   3.882   3.665  1.7298 -0.0801  0.1143
  580SOL    HW2 1922   5.685   3.736   3.675 -1.3907 -1.7122 -0.0292
  581SOL     OW 1923   2.566   4.343   2.877  0.1492 -0.7590 -0.7403
  581SOL    HW1 1924   2.468   4.360   2.866  0.0590 -0.3131  0.6099
  581SOL    HW2 1925   2.593   4.269   2.816 -1.1735 -1.3854 -0.6038
  582SOL     OW 1926   2.638   1.981   2.938 -0.3699 -0.0902 -0.2418
  582SOL    HW1 1927   2.685   1.948   2.857  0.2514  3.4729 -1.5166
  582SOL    HW2 1928   2.547   2.014   2.913  1.4748  5.5398 -0.8434
  583SOL     OW 1929   1.843   3.728   4.703  0.0416  0.0071 -0.5996
  583SOL    HW1 1930   1.792   3.655   4.658 -1.3714  0.3490  0.3922
  583SOL    HW2 1931   1.844   3.809   4.644 -1.0192  0.1588 -0.4307
  584SOL     OW 1932   2.590   3.815   3.771  0.3927 -0.3352 -0.1883
  584SOL    HW1 1933   2.497   3.801   3.739 -0.1425  1.5524  0.4195
  584SOL    HW2 1934   2.602   3.767   3.858 -0.9462  1.6174  1.1598
  585SOL     OW 1935   2.829   0.730   2.790 -0.2737  0.1364 -0.0517
  585SOL    HW1 1936   2.799   0.669   2.863  0.7547  0.1174  0.3680
  585SOL    HW2 1937   2.923   0.758   2.806 -0.4376  1.1550 -0.6949
  586SOL     OW 1938   3.231   0.658   2.291 -0.1075 -0.7981  0.2535
  586SOL    HW1 1939   3.211   0.731   2.356  0.6906  0.3234 -0.7144
  586SOL    HW2 1940   3.167   0.583   2.306 -0.4347 -0.2530  1.8062
  587SOL     OW 1941   3.764   4.263   1.821  0.5096 -0.0853  0.1931
  587SOL    HW1 1942   3.710   4.183   1.850 -0.0734  0.0974 -0.3645
  587SOL    HW2 1943   3.837   4.233   1.760 -1.3347  0.0618 -2.2096
  588SOL     OW 1944   2.468   2.449   3.187  0.3523  0.1079  0.2652
  588SOL    HW1 1945   2.511   2.413   3.104 -1.1376  0.0962 -0.5311
  588SOL    HW2 1946   2.524   2.424   3.266  0.3431 -2.3861 -0.4262
  589SOL     OW 1947   2.985   3.484   2.455  0.8927  0.1651  0.0378
  589SOL    HW1 1948   2.914   3.536   2.503  0.1326 -0.7005 -0.1223
  589SOL    HW2 1949   2.967   3.486   2.357  1.6545  0.7503 -0.1066
  590SOL     OW 1950   5.789   2.811   4.312  0.0526  0.0961 -0.3597
  590SOL    HW1 1951   5.807   2.856   4.224 -0.5364  0.7717 -0.1456
  590SOL    HW2 1952   5.875   2.793   4.358  0.2774  1.6517 -0.1439
  591SOL     OW 1953   1.387   2.683   2.803 -0.9476 -0.0319 -1.0984
  591SOL    HW1 1954   1.401   2.748   2.728  1.3573  0.9248  0.0743
  591SOL    HW2 1955   1.470   2.630   2.818 -1.5286 -0.5779  0.4401
  592SOL     OW 1956   4.479   3.049   3.015  0.5836  0.5145  0.3024
  592SOL    HW1 1957   4.418   3.119   2.981 -1.2718 -0.6969  0.9769
  592SOL    HW2 1958   4.524   3.004   2.938 -2.1581 -0.9728 -0.5553
  593SOL     OW 1959   1.996   4.322   1.740  0.5757  0.8145 -0.4187
  593SOL    HW1 1960   1.898   4.331   1.722  1.0206  1.4235 -2.9355
  593SOL    HW2 1961   2.010   4.258   1.815 -1.7668  1.3658  0.5733
  594SOL     OW 1962   3.044   3.001   0.483  0.6526  0.0234  0.3760
  594SOL    HW1 1963   3.012   2.986   0.577  0.9825  1.5545  0.7543
  594SOL    HW2 1964   3.110   2.930   0.459  0.1820 -0.6828  1.1030
  595SOL     OW 1965   0.474   2.774   4.151 -0.3850  0.8585  0.2372
  595SOL    HW1 1966   0.468   2.873   4.139  0.9881  0.9546  0.1812
  595SOL    HW2 1967   0.569   2.745   4.139 -0.7556 -0.4635  0.3130
  596SOL     OW 1968   0.810   2.986   4.361 -0.1292 -0.1486 -0.2654
  596SOL    HW1 1969   0.751   3.065   4.348 -2.0533 -1.6024 -0.9448
  596SOL    HW2 1970   0.808   2.929   4.279  0.8927 -1.1160  0.3387
  597SOL     OW 1971   3.308   1.572   1.524 -0.5952  0.0667 -0.2581
  597SOL    HW1 1972   3.389   1.516   1.541 -0.6307  0.6054  2.1066
  597SOL    HW2 1973   3.306   1.647   1.590 -2.5343  0.6258 -0.8813
  598SOL     OW 1974   3.106   5.140   1.585 -0.0968 -0.5400  0.2373
  598SOL    HW1 1975   3.074   5.199   1.660  1.1120  0.8722 -0.3092
  598SOL    HW2 1976   3.097   5.045   1.613 -1.1823 -0.0930  1.5468
  599SOL     OW 1977   2.584   2.925   4.208 -0.5045 -0.6057 -0.3164
  599SOL    HW1 1978   2.599   2.853   4.140 -1.1828 -1.7095  0.6653
  599SOL    HW2 1979   2.662   2.988   4.207  1.0405 -2.4361  0.1176
  600SOL     OW 1980   2.194   2.167   3.040 -0.2525 -0.0726  0.4368
  600SOL    HW1 1981   2.160   2.241   2.982  0.3453 -0.0795  0.0725
  600SOL    HW2 1982   2.201   2.199   3.134 -0.7874  0.0787  0.4284
  601SOL     OW 1983   4.134   3.225   4.295  0.2584  0.6203 -0.6884
  601SOL    HW1 1984   4.115   3.156   4.226  0.8608 -1.1147  0.8021
  601SOL    HW2 1985   4.061   3.294   4.294 -1.0351 -0.7038 -1.3998
  602SOL     OW 1986   0.129   3.022   3.939 -0.2190  0.0112 -0.6500
  602SOL    HW1 1987   0.202   2.955   3.956  0.5881  1.1674  0.5835
  602SOL    HW2 1988   0.170   3.106   3.904 -1.1036  0.2823 -1.0481
  603SOL     OW 1989   4.670   3.473   2.366 -0.2666 -0.9638 -0.3639
  603SOL    HW1 1990   4.744   3.491   2.301  0.4501  0.0168  0.6842
  603SOL    HW2 1991   4.596   3.539   2.351  0.2343 -0.2401  0.3014
  604SOL     OW 1992   3.108   3.055   0.037  0.3442  0.8176  0.2918
  604SOL    HW1 1993   3.146   3.084   0.125 -1.8402  2.0086  0.9134
  604SOL    HW2 1994   3.109   3.132  -0.026  0.0142  0.5493 -0.0462
  605SOL     OW 1995   0.381   3.630   3.474 -0.1135 -0.4121  0.3545
  605SOL    HW1 1996   0.374   3.725   3.507 -1.1461 -0.4526  0.2976
  605SOL    HW2 1997   0.410   3.631   3.379  0.1023 -0.1655  0.4194
  606SOL     OW 1998   0.665   4.061   2.944  0.2898 -0.1758  0.1094
  606SOL    HW1 1999   0.673   4.076   3.043 -1.4623 -0.4514  0.3298
  606SOL    HW2 2000   0.642   3.965   2.927  2.0142 -0.4867 -0.6906
  607SOL     OW 2001   1.519   1.624   3.733 -0.1437  0.1686  0.0531
  607SOL    HW1 2002   1.574   1.542   3.719 -0.4606 -0.1193  0.4811
  607SOL    HW2 2003   1.460   1.638   3.653 -0.2381 -0.1337  0.0700
  608SOL     OW 2004   2.272   4.315   2.148 -0.4092 -0.2993  0.0544
  608SOL    HW1 2005   2.327   4.298   2.066 -0.2015 -0.4546  0.2265
  608SOL    HW2 2006   2.331   4.345   2.223 -0.7095  0.6741 -0.0886
  609SOL     OW 2007   0.943   3.266   4.132 -0.4940  0.1897 -0.0208
  609SOL    HW1 2008   0.844   3.253   4.119 -0.2063 -0.5274 -1.6215
  609SOL    HW2 2009   0.958   3.355   4.176 -1.8289  0.4334  0.0002
  610SOL     OW 2010   3.428   3.930   2.381  0.6579  0.2234  0.1856
  610SOL    HW1 2011   3.415   3.909   2.284  0.7030  1.1238 -0.0230
  610SOL    HW2 2012   3.413   4.028   2.396  0.0791 -0.0016  1.1902
  611SOL     OW 2013   4.716   1.855   3.531 -0.4083  0.2995 -0.4818
  611SOL    HW1 2014   4.700   1.944   3.573  0.8282  0.4248 -0.2244
  611SOL    HW2 2015   4.721   1.866   3.431 -0.3338  0.5142 -0.4548
  612SOL     OW 2016   3.556   2.807   3.151 -0.3311 -0.9514 -0.1249
  612SOL    HW1 2017   3.603   2.857   3.224 -0.0326 -2.2339  0.5887
  612SOL    HW2 2018   3.560   2.861   3.067  1.1835 -0.3929  0.2719
  613SOL     OW 2019   3.219   1.213   2.688  0.0350  0.3622  0.4974
  613SOL    HW1 2020   3.138   1.248   2.735  0.9307  0.7849  1.7829
  613SOL    HW2 2021   3.217   1.242   2.593 -1.0492  0.8303  0.6521
  614SOL     OW 2022   5.524   2.525   4.165 -0.4839  0.4781 -0.0177
  614SOL    HW1 2023   5.507   2.557   4.259 -1.8362 -1.3933  0.4554
  614SOL    HW2 2024   5.611   2.476   4.162 -0.5486  0.3382  0.3324
  615SOL     OW 2025   2.048   3.135   2.280  0.1134 -0.5419 -0.3257
  615SOL    HW1 2026   2.136   3.133   2.328  0.0293  0.4564 -0.1058
  615SOL    HW2 2027   1.988   3.201   2.324 -0.8992 -1.4948 -0.2402
  616SOL     OW 2028   3.838   2.377   4.142  0.2807  0.1549 -0.0884
  616SOL    HW1 2029   3.812   2.433   4.221 -0.1891 -0.5075  0.2325
  616SOL    HW2 2030   3.927   2.407   4.109 -0.1847  1.4469 -0.2458
  617SOL     OW 2031   2.486   3.426   5.677 -0.3071  0.4615  0.5785
  617SOL    HW1 2032   2.478   3.508   5.733 -0.5974 -0.0031  1.2299
  617SOL    HW2 2033   2.520   3.351   5.733 -0.8664 -0.0823  0.2024
  618SOL     OW 2034   3.437   1.353   3.569  0.0811  0.3065 -0.2969
  618SOL    HW1 2035   3.516   1.411   3.583 -1.5379  2.9300 -1.2695
  618SOL    HW2 2036   3.374   1.364   3.646  0.8494 -2.3198  0.8431
  619SOL     OW 2037   3.139   2.258   1.351  0.0511  0.7160 -0.1411
  619SOL    HW1 2038   3.077   2.273   1.427 -1.2945 -0.8766 -0.8585
  619SOL    HW2 2039   3.153   2.344   1.302 -0.3634  1.4093  0.9309
  620SOL     OW 2040   2.949   1.782   1.408 -0.0504 -0.0701  0.0146
  620SOL    HW1 2041   2.988   1.801   1.498 -0.5992  0.2516  0.1896
  620SOL    HW2 2042   2.869   1.723   1.420  0.9039 -1.5021 -0.4167
  621SOL     OW 2043   3.185   1.771   2.215 -0.2445  0.9452 -0.0787
  621SOL    HW1 2044   3.197   1.841   2.145  2.9089  1.6305  1.0052
  621SOL    HW2 2045   3.207   1.810   2.305  0.9457 -1.2330  0.6392
  622SOL     OW 2046   5.287   3.064   3.124 -0.4009  0.4508  0.4134
  622SOL    HW1 2047   5.328   2.975   3.143 -1.2661  0.2489  1.4120
  622SOL    HW2 2048   5.191   3.063   3.152  0.0454  2.2835  2.2711
  623SOL     OW 2049   1.867   4.662   1.449  0.3938  0.1983  0.3445
  623SOL    HW1 2050   1.834   4.584   1.501  0.9129 -0.0348  0.3281
  623SOL    HW2 2051   1.868   4.743   1.508 -0.6031  0.3051  0.2270
  624SOL     OW 2052   2.829   3.576   4.600  0.6254 -0.1128  0.1153
  624SOL    HW1 2053   2.865   3.488   4.630  0.7044 -0.1579 -0.1086
  624SOL    HW2 2054   2.788   3.566   4.509  2.4335  0.4965 -0.8191
  625SOL     OW 2055   5.449   2.729   3.985 -0.3545 -0.0194 -0.4881
  625SOL    HW1 2056   5.459   2.811   4.042  0.8197  0.1677 -0.9323
  625SOL    HW2 2057   5.472   2.648   4.038 -0.4188  0.0416 -0.3665
  626SOL     OW 2058   0.350   2.628   3.501 -0.2331  0.1208 -0.5579
  626SOL    HW1 2059   0.256   2.659   3.515 -0.5805 -1.0619 -0.0997
  626SOL    HW2 2060   0.410   2.673   3.567 -0.9625 -1.2210  1.1154
  627SOL     OW 2061   2.706   4.617   1.656 -0.1615 -0.0061 -0.2400
  627SOL    HW1 2062   2.798   4.633   1.692  0.0576 -0.0315 -0.7891
  627SOL    HW2 2063   2.696   4.521   1.629 -0.5017 -0.1123  0.2473
  628SOL     OW 2064   2.329   1.672   4.260  0.4567  0.2870 -0.0899
  628SOL    HW1 2065   2.389   1.593   4.250  0.9592  0.1787  2.9421
  628SOL    HW2 2066   2.358   1.726   4.339 -0.8002  2.7082 -1.1640
  629SOL     OW 2067   3.586   2.851   1.151  0.2114  0.3414 -0.4789
  629SOL    HW1 2068   3.658   2.894   1.095  0.1103  2.3742  0.8433
  629SOL    HW2 2069   3.523   2.922   1.183 -0.7961 -1.0294  0.6864
  630SOL     OW 2070   4.690   3.726   1.768 -0.0390  0.4448  0.3722
  630SOL    HW1 2071   4.757   3.654   1.748  1.2890  1.5525  0.6705
  630SOL    HW2 2072   4.736   3.803   1.813 -0.9403  2.4651 -1.9263
  631SOL     OW 2073   2.848   2.372   2.683  0.0554 -0.0085  0.1087
  631SOL    HW1 2074   2.934   2.416   2.707 -0.2498  0.0858  1.0558
  631SOL    HW2 2075   2.774   2.440   2.690 -0.0135  0.1096 -1.4161
  632SOL     OW 2076   3.614   3.701   1.080  0.4149  0.2747  0.6948
  632SOL    HW1 2077   3.562   3.786   1.077  0.3669  0.2336  0.2304
  632SOL    HW2 2078   3.574   3.639   1.147 -1.8691 -0.8644 -1.5792
  633SOL     OW 2079   4.072   3.867   2.019  0.4899  0.5624 -0.5328
  633SOL    HW1 2080   4.044   3.948   2.070 -0.3185  0.1032 -0.2268
  633SOL    HW2 2081   4.172   3.865   2.012  0.4982  3.2445 -3.2762
  634SOL     OW 2082   2.580   3.583   2.307  0.8762 -0.4914  0.1026
  634SOL    HW1 2083   2.663   3.634   2.329  0.2579  0.6190 -0.0633
  634SOL    HW2 2084   2.543   3.541   2.390 -0.5454  2.3096  0.9947
  635SOL     OW 2085   2.448   3.908   1.893  0.3449  0.2245 -0.2390
  635SOL    HW1 2086   2.460   3.944   1.985 -2.0106  0.0542  0.2147
  635SOL    HW2 2087   2.435   3.809   1.898  0.6254  0.1541 -0.8007
  636SOL     OW 2088   2.852   2.748   0.701  0.2044  0.5367  0.3257
  636SOL    HW1 2089   2.777   2.777   0.642 -0.8977 -0.3942  1.1965
  636SOL    HW2 2090   2.917   2.823   0.712 -2.0749  2.4535  1.8519
  637SOL     OW 2091   3.264   4.421   3.635  0.1229 -0.2820  0.3265
  637SOL    HW1 2092   3.353   4.389   3.665 -0.3089 -2.7082 -0.7662
  637SOL    HW2 2093   3.275   4.504   3.580  1.6681 -0.4195  0.4010
  638SOL     OW 2094   3.080   3.322   1.233  0.2070  0.1919  0.3177
  638SOL    HW1 2095   2.997   3.344   1.284 -0.9226 -0.2968 -1.2593
  638SOL    HW2 2096   3.087   3.223   1.222 -0.3466  0.3462 -1.6985
  639SOL     OW 2097   4.776   3.325   2.571  0.7016 -0.2775  0.5394
  639SOL    HW1 2098   4.870   3.296   2.551  1.1290  0.8445  0.8345
  639SOL    HW2 2099   4.733   3.358   2.487  0.6184 -0.6833  0.4249
  640SOL     OW 2100   1.361   3.669   3.691  0.5144 -0.1539  0.1102
  640SOL    HW1 2101   1.264   3.690   3.675  0.2319 -2.4200 -1.7696
  640SOL    HW2 2102   1.370   3.624   3.780 -0.0803  0.4196  0.4714
  641SOL     OW 2103   3.396   2.633   1.579 -0.1255  0.4882  0.0573
  641SOL    HW1 2104   3.329   2.702   1.551 -0.2677  0.2869 -0.1065
  641SOL    HW2 2105   3.466   2.625   1.508  0.4148  1.1334  0.5056
  642SOL     OW 2106   5.198   2.495   3.582  0.0728  0.9459  0.6063
  642SOL    HW1 2107   5.248   2.562   3.636 -0.4739  1.7831  0.1021
  642SOL    HW2 2108   5.185   2.530   3.489 -0.2943  0.1770  0.3543
  643SOL     OW 2109   3.875   0.155   2.383  0.1622  0.1034  0.0891
  643SOL    HW1 2110   3.935   0.111   2.449 -0.4204 -1.2278 -0.2243
  643SOL    HW2 2111   3.798   0.196   2.432  0.1763 -0.1347  0.3180
  644SOL     OW 2112   3.559   2.617   1.368 -0.3526 -0.4180  0.1400
  644SOL    HW1 2113   3.595   2.529   1.336 -1.7932 -1.2019  0.5957
  644SOL    HW2 2114   3.559   2.682   1.292  0.5271 -0.8699 -0.2564
  645SOL     OW 2115   1.998   3.915   1.665  0.5706  0.3079 -0.5113
  645SOL    HW1 2116   1.942   3.844   1.624 -0.9206 -0.2958  2.3078
  645SOL    HW2 2117   2.091   3.882   1.676  0.1808 -0.7584 -0.3625
  646SOL     OW 2118   4.287   4.119   2.536 -0.1975  1.0639  0.4171
  646SOL    HW1 2119   4.218   4.095   2.604  0.3360  2.2331  1.4067
  646SOL    HW2 2120   4.337   4.037   2.509  1.5737  0.9103  3.6503
  647SOL     OW 2121   2.702   2.211   1.829  0.2986 -0.5451 -0.5547
  647SOL    HW1 2122   2.680   2.199   1.732  1.3823 -2.3450 -0.6320
  647SOL    HW2 2123   2.750   2.130   1.861 -0.2656 -0.0926  1.5770
  648SOL     OW 2124   3.663   0.457   2.980  0.3287  0.2281  0.1370
  648SOL    HW1 2125   3.596   0.403   3.032 -0.4687 -0.4490 -1.5055
  648SOL    HW2 2126   3.706   0.398   2.911 -0.2913  1.5694 -1.4731
  649SOL     OW 2127   4.049   4.162   3.464  0.0720  0.7539  0.3266
  649SOL    HW1 2128   3.965   4.123   3.502 -0.8002 -0.8750 -2.8715
  649SOL    HW2 2129   4.113   4.088   3.442  0.5044  1.5430 -1.2278
  650SOL     OW 2130   0.121   2.921   3.466 -0.1772 -0.1569  0.4386
  650SOL    HW1 2131   0.134   2.863   3.546 -0.6924  0.1565  0.7549
  650SOL    HW2 2132   0.162   3.011   3.483  0.9597 -0.5323 -0.1957
  651SOL     OW 2133   5.332   2.734   3.729 -0.1403  0.4233  0.9487
  651SOL    HW1 2134   5.401   2.712   3.660 -1.8250 -0.5247 -0.5401
  651SOL    HW2 2135   5.372   2.725   3.820  0.9372 -3.1262  0.2926
  652SOL     OW 2136   4.738   3.430   2.822 -0.2944  0.6388 -0.0650
  652SOL    HW1 2137   4.660   3.485   2.790  0.2297  0.3380 -2.0170
  652SOL    HW2 2138   4.774   3.378   2.745  1.1931 -0.0417  1.0526
  653SOL     OW 2139   3.260   3.578   2.441  0.1194  0.1293 -0.5777
  653SOL    HW1 2140   3.277   3.571   2.342  1.9763 -2.5880 -0.1718
  653SOL    HW2 2141   3.196   3.506   2.468 -0.8463  1.2412  0.1471
  654SOL     OW 2142   4.036   0.812   2.708 -0.0171 -0.4592  0.5178
  654SOL    HW1 2143   4.126   0.856   2.713  0.7734 -1.7430 -1.1309
  654SOL    HW2 2144   3.978   0.863   2.645  0.3655 -0.8971 -0.1995
  655SOL     OW 2145   3.503   3.546   1.292  0.1755  0.7365  0.1036
  655SOL    HW1 2146   3.509   3.506   1.384 -0.5968  1.4647  0.4784
  655SOL    HW2 2147   3.409   3.542   1.261  0.4678  0.3001 -0.7672
  656SOL     OW 2148   0.665   3.848   3.224 -0.0375  0.2435 -0.3535
  656SOL    HW1 2149   0.693   3.942   3.204  0.6494  0.3567  0.9894
  656SOL    HW2 2150   0.643   3.801   3.138  0.3231  1.4021 -1.1050
  657SOL     OW 2151   3.679   3.488   3.269 -0.8598  0.2545 -0.4490
  657SOL    HW1 2152   3.741   3.415   3.241  0.0140  1.0930 -0.7828
  657SOL    HW2 2153   3.730   3.574   3.276 -1.1601  0.3074  2.9404
  658SOL     OW 2154   1.160   3.027   3.766  0.6561  0.0825 -0.7174
  658SOL    HW1 2155   1.156   3.025   3.866  0.9792 -1.6758 -0.7092
  658SOL    HW2 2156   1.208   3.110   3.737 -1.3033  1.7429  0.4713
  659SOL     OW 2157   2.652   2.150   4.613  0.0046  0.1257 -0.0522
  659SOL    HW1 2158   2.577   2.141   4.677 -0.1575 -0.2093 -0.2822
  659SOL    HW2 2159   2.617   2.135   4.520  0.4182 -0.3886 -0.1280
  660SOL     OW 2160   4.997   3.899   2.381  0.0560  0.7306 -0.1874
  660SOL    HW1 2161   4.964   3.919   2.473  2.5929  2.9280  0.3815
  660SOL    HW2 2162   5.034   3.806   2.379  1.8715  1.3185  1.7342
  661SOL     OW 2163   3.611   2.129   1.223  0.2383 -0.0821  0.0238
  661SOL    HW1 2164   3.557   2.045   1.221  1.6262 -1.0045 -0.1667
  661SOL    HW2 2165   3.572   2.192   1.290 -1.4294 -0.4299 -0.5645
  662SOL     OW 2166   0.599   2.369   2.891  0.1688 -0.0714 -0.4731
  662SOL    HW1 2167   0.607   2.426   2.810  0.0383  1.5449  0.5994
  662SOL    HW2 2168   0.572   2.276   2.864 -1.5329  0.8421 -2.1409
  663SOL     OW 2169   0.354   3.864   3.634  0.2254 -0.2312 -0.1945
  663SOL    HW1 2170   0.346   3.944   3.575 -1.8482  0.2420  0.6499
  663SOL    HW2 2171   0.411   3.886   3.713  1.0190 -0.1343 -0.7758
  664SOL     OW 2172   2.848   4.075   4.059  0.5157 -0.8620  0.4809
  664SOL    HW1 2173   2.909   4.154   4.050  1.4708 -1.5147  1.0672
  664SOL    HW2 2174   2.845   4.025   3.972 -2.6027  1.5254 -0.9795
  665SOL     OW 2175   2.497   1.939   4.155 -0.4106 -0.3396 -0.2857
  665SOL    HW1 2176   2.427   1.877   4.189 -0.8674 -1.0697 -2.3974
  665SOL    HW2 2177   2.481   1.956   4.057  0.8334  1.5764 -0.1995
  666SOL     OW 2178   3.175   3.720   1.099  0.2187 -0.0669 -0.1043
  666SOL    HW1 2179   3.193   3.818   1.112  1.3187 -0.3034  0.3073
  666SOL    HW2 2180   3.207   3.670   1.180 -2.2514 -0.5921  0.6400
  667SOL     OW 2181   4.292   2.534   1.711  0.4380  0.1295 -0.8351
  667SOL    HW1 2182   4.308   2.453   1.768  0.5929  0.7110 -0.0322
  667SOL    HW2 2183   4.196   2.562   1.719  0.4069  0.0807 -1.0374
  668SOL     OW 2184   1.470   2.504   4.478  0.3663  0.2954 -0.5425
  668SOL    HW1 2185   1.515   2.536   4.562  2.4265  0.7777 -1.7385
  668SOL    HW2 2186   1.421   2.581   4.436  0.4785  0.4102 -0.4654
  669SOL     OW 2187   1.783   3.880   3.633 -0.4390  0.3783 -0.5747
  669SOL    HW1 2188   1.773   3.961   3.691 -3.0955 -0.3035  0.0987
  669SOL    HW2 2189   1.696   3.862   3.587  0.2038 -1.7990 -1.0722
  670SOL     OW 2190   2.274   1.458   3.545 -0.1249 -0.1838 -0.1173
  670SOL    HW1 2191   2.305   1.544   3.503  1.5609 -0.9135 -0.4706
  670SOL    HW2 2192   2.216   1.479   3.623  1.1354  1.3316  0.4727
  671SOL     OW 2193   1.830   4.033   2.791 -0.1267  0.2499 -0.0824
  671SOL    HW1 2194   1.872   4.104   2.848  1.5705  0.3337 -1.3446
  671SOL    HW2 2195   1.800   4.075   2.705  0.0347 -0.3820 -0.4509
  672SOL     OW 2196   4.048   1.184   2.972 -0.1898  0.5499 -0.2229
  672SOL    HW1 2197   3.972   1.227   2.923 -2.2857 -1.8580  0.7101
  672SOL    HW2 2198   4.011   1.121   3.041  2.6784 -0.5133  0.4626
  673SOL     OW 2199   4.823   3.818   2.150  0.0055 -0.5408 -0.3952
  673SOL    HW1 2200   4.868   3.857   2.230 -0.5008 -1.6789  0.4704
  673SOL    HW2 2201   4.817   3.719   2.161 -2.3541 -0.4637 -0.6634
  674SOL     OW 2202   1.853   3.585   5.237  0.4640  0.2144  0.2013
  674SOL    HW1 2203   1.837   3.598   5.139 -0.7138 -1.4373  0.1292
  674SOL    HW2 2204   1.936   3.634   5.264  1.8232 -0.7216 -2.0077
  675SOL     OW 2205   4.758   2.670   2.095 -0.4382 -1.0901 -0.0440
  675SOL    HW1 2206   4.751   2.699   2.190  0.0388  0.3694 -0.4285
  675SOL    HW2 2207   4.838   2.714   2.053  0.8505 -3.6684 -0.4636
  676SOL     OW 2208   3.778   3.809   2.070 -0.2400  0.1799 -0.0537
  676SOL    HW1 2209   3.724   3.766   2.142  0.6334  0.3726  0.7321
  676SOL    HW2 2210   3.872   3.822   2.102  0.3997 -0.5121 -1.5136
  677SOL     OW 2211   2.105   2.331   4.690 -0.0769 -0.3729 -0.1912
  677SOL    HW1 2212   2.152   2.414   4.721  2.9400 -1.8737 -0.4192
  677SOL    HW2 2213   2.104   2.329   4.590 -2.4929  0.5457 -0.2505
  678SOL     OW 2214   3.137   0.381   2.277 -0.0276 -0.4054  0.0112
  678SOL    HW1 2215   3.108   0.306   2.217 -0.8047  0.7040 -1.0533
  678SOL    HW2 2216   3.085   0.377   2.362  2.0049 -2.7820  1.2702
  679SOL     OW 2217   3.979   3.643   1.896  0.0614  0.1966 -0.4066
  679SOL    HW1 2218   4.006   3.717   1.957 -1.1574  0.8753 -0.6552
  679SOL    HW2 2219   4.018   3.557   1.929 -0.2416  0.6111  1.1101
  680SOL     OW 2220   3.851   4.383   3.030 -0.0821  0.1808  0.0896
  680SOL    HW1 2221   3.881   4.478   3.034 -1.5116  0.7032 -0.6648
  680SOL    HW2 2222   3.786   4.366   3.105 -1.5348  0.4857 -1.0405
  681SOL     OW 2223   5.090   2.870   3.695  0.5271 -0.0330 -0.2646
  681SOL    HW1 2224   5.046   2.869   3.785 -0.0259 -0.5711 -0.5338
  681SOL    HW2 2225   5.179   2.824   3.702  1.9809  2.6941  0.7121
  682SOL     OW 2226   1.178   3.599   2.260  0.4852  0.2997  0.2165
  682SOL    HW1 2227   1.218   3.518   2.304  0.1721 -1.1677 -2.0571
  682SOL    HW2 2228   1.244   3.638   2.197 -0.1313  0.4831 -0.3238
  683SOL     OW 2229   4.224   4.470   3.170 -0.2472  0.2885  0.6590
  683SOL    HW1 2230   4.284   4.396   3.140 -0.5860  0.6874 -1.1382
  683SOL    HW2 2231   4.181   4.444   3.256 -0.0576 -1.4532  0.2747
  684SOL     OW 2232   3.228   2.797   0.426  0.2094 -0.3733 -0.2428
  684SOL    HW1 2233   3.190   2.743   0.350  1.5083  0.4922 -1.5516
  684SOL    HW2 2234   3.302   2.746   0.468  2.2788  0.7654 -2.2764
  685SOL     OW 2235   1.874   4.144   1.520 -0.3642  0.7389 -0.0810
  685SOL    HW1 2236   1.921   4.208   1.581 -3.3230  1.4863  1.5970
  685SOL    HW2 2237   1.878   4.052   1.560 -2.5716  1.2778  1.5852
  686SOL     OW 2238   2.211   3.781   3.274  0.3181 -0.6233  0.0546
  686SOL    HW1 2239   2.268   3.858   3.246 -0.3720 -0.3191 -0.5415
  686SOL    HW2 2240   2.133   3.816   3.327 -1.4330 -0.5747 -2.3792
  687SOL     OW 2241   2.939   3.540   5.424  0.6251 -0.0903 -0.0836
  687SOL    HW1 2242   2.865   3.483   5.459 -0.3523  2.3783  2.1358
  687SOL    HW2 2243   2.907   3.634   5.414  2.4335  0.3693 -2.7637
  688SOL     OW 2244   2.995   3.473   2.185  0.0855  0.0584 -0.3049
  688SOL    HW1 2245   3.007   3.375   2.165  0.1713  0.0136 -0.0396
  688SOL    HW2 2246   2.924   3.510   2.125 -1.3107 -0.6101  0.8710
  689SOL     OW 2247   1.821   3.866   1.321  0.4492 -0.1898  0.0305
  689SOL    HW1 2248   1.844   3.814   1.240 -0.5664  1.1267 -1.1492
  689SOL    HW2 2249   1.820   3.964   1.299  1.8485  0.3664  2.0458
  690SOL     OW 2250   2.239   1.546   3.947 -0.3888 -0.0205 -0.7696
  690SOL    HW1 2251   2.331   1.565   3.983 -0.3798 -0.4213 -0.5771
  690SOL    HW2 2252   2.171   1.574   4.014 -0.4332  0.7464 -1.1164
  691SOL     OW 2253   2.820   2.146   2.509 -0.1690  0.3809  0.6225
  691SOL    HW1 2254   2.828   2.056   2.552 -0.9298  0.3478  0.7125
  691SOL    HW2 2255   2.855   2.216   2.572  0.2781  0.1664  0.6152
  692SOL     OW 2256   2.488   2.060   2.344 -0.8087 -0.8471  0.5842
  692SOL    HW1 2257   2.455   2.044   2.251 -0.1701 -0.1739  0.2330
  692SOL    HW2 2258   2.552   2.137   2.343  0.8699 -2.1623  1.2200
  693SOL     OW 2259   1.713   3.811   4.176  0.6667 -0.2546  0.5622
  693SOL    HW1 2260   1.701   3.891   4.234 -1.5444  0.4971 -0.8220
  693SOL    HW2 2261   1.808   3.779   4.184  1.4221  2.0388  1.6954
  694SOL     OW 2262   1.593   2.519   2.922  0.3168  0.0880  1.0176
  694SOL    HW1 2263   1.516   2.455   2.916  1.8485 -1.7521 -1.0229
  694SOL    HW2 2264   1.674   2.475   2.883  2.5605  1.7679  3.4702
  695SOL     OW 2265   3.974   3.171   1.754 -0.2173  0.1471 -0.0974
  695SOL    HW1 2266   4.027   3.223   1.686 -0.2089  0.4016  0.1030
  695SOL    HW2 2267   3.884   3.151   1.716 -0.1204  0.0582 -0.2864
  696SOL     OW 2268   3.192   5.673   2.314 -0.1440  0.3996  0.5264
  696SOL    HW1 2269   3.169   5.749   2.375  0.7854 -0.3954  1.9104
  696SOL    HW2 2270   3.116   5.657   2.251 -0.8418  1.6899  1.0082
  697SOL     OW 2271   1.737   1.105   2.525 -0.0359 -0.3620  0.0861
  697SOL    HW1 2272   1.714   1.029   2.464 -0.8997  0.2002 -0.3054
  697SOL    HW2 2273   1.686   1.186   2.498 -1.4159 -0.4043  2.3106
  698SOL     OW 2274   1.110   2.876   3.358  0.4662 -0.0593 -0.6905
  698SOL    HW1 2275   1.113   2.808   3.284  1.6499 -1.2595  0.3924
  698SOL    HW2 2276   1.194   2.930   3.356 -0.7402  1.8928 -1.9345
  699SOL     OW 2277   4.410   5.709   1.726  0.0042 -0.7028  0.0025
  699SOL    HW1 2278   4.403   5.669   1.635 -0.0463 -1.0753  0.1678
  699SOL    HW2 2279   4.338   5.671   1.784 -0.6489  0.3291 -0.0922
  700SOL     OW 2280   4.406   4.167   3.360  0.1789 -1.0328  0.5249
  700SOL    HW1 2281   4.389   4.187   3.264 -0.7056  2.3222  1.2272
  700SOL    HW2 2282   4.355   4.086   3.388 -3.2705  0.4723 -0.8610
  701SOL     OW 2283   3.752   3.506   3.709  0.3873  0.6527  0.2109
  701SOL    HW1 2284   3.742   3.448   3.628 -0.3564 -2.1290  2.1320
  701SOL    HW2 2285   3.848   3.503   3.739  0.2439 -0.0362  0.6078
  702SOL     OW 2286   3.990   4.594   3.168  0.2921  0.2089  0.0648
  702SOL    HW1 2287   3.965   4.593   3.264 -0.2392 -1.7691 -0.0526
  702SOL    HW2 2288   4.084   4.562   3.157  0.6260  1.1824 -0.0361
  703SOL     OW 2289   1.600   3.030   3.259  0.6468  0.1465  0.1143
  703SOL    HW1 2290   1.630   3.097   3.191  2.0741 -0.9457 -0.3817
  703SOL    HW2 2291   1.673   3.019   3.327  0.4697 -0.9595  0.1360
  704SOL     OW 2292   1.627   4.245   1.434  0.2072 -0.5139 -0.1613
  704SOL    HW1 2293   1.605   4.268   1.339  0.8913  3.7393  0.5086
  704SOL    HW2 2294   1.714   4.195   1.436  1.6096  1.6956 -1.7274
  705SOL     OW 2295   4.652   2.203   3.293  0.4005 -0.0634  0.3952
  705SOL    HW1 2296   4.587   2.187   3.367  0.4578  0.8501  0.6506
  705SOL    HW2 2297   4.697   2.291   3.307  0.1359  0.3018 -0.9390
  706SOL     OW 2298   2.365   0.378   2.602 -0.4343 -0.3258 -0.3704
  706SOL    HW1 2299   2.349   0.469   2.563 -1.4698 -1.4127 -2.6736
  706SOL    HW2 2300   2.390   0.388   2.698  0.0590  2.4122 -0.6927
  707SOL     OW 2301   4.408   0.070   2.897 -0.1697 -0.2728 -0.2363
  707SOL    HW1 2302   4.358   0.000   2.846 -1.8044 -0.2925  1.2894
  707SOL    HW2 2303   4.399   0.158   2.850 -1.0748 -0.4169 -0.3543
  708SOL     OW 2304   1.650   4.827   2.465 -0.1867 -0.0753 -1.1703
  708SOL    HW1 2305   1.680   4.767   2.540 -0.1176  1.4905  0.1102
  708SOL    HW2 2306   1.553   4.811   2.447 -0.9522  1.3731  1.1825
  709SOL     OW 2307   3.180   1.718   1.302  0.9713  0.1626  0.0197
  709SOL    HW1 2308   3.237   1.665   1.365  1.3917  1.7967  1.0948
  709SOL    HW2 2309   3.084   1.704   1.326  1.0509 -0.4264  0.0192
  710SOL     OW 2310   0.431   3.123   3.307 -0.3102 -0.2820  0.3816
  710SOL    HW1 2311   0.529   3.116   3.322 -0.7619 -1.3685  3.4389
  710SOL    HW2 2312   0.405   3.061   3.233  1.3105  0.4872 -0.9097
  711SOL     OW 2313   3.136   3.883   1.571  0.3223  0.0166 -0.4353
  711SOL    HW1 2314   3.201   3.946   1.528 -0.8333  1.5775  0.0406
  711SOL    HW2 2315   3.052   3.880   1.517  0.1846 -0.7633 -0.1915
  712SOL     OW 2316   4.607   2.963   2.743 -0.6143  0.1055  0.3281
  712SOL    HW1 2317   4.705   2.983   2.736 -0.5216  0.0308  1.2245
  712SOL    HW2 2318   4.556   3.033   2.693 -0.0989  0.0711 -0.2566
  713SOL     OW 2319   3.435   2.751   0.779 -0.5256 -0.2369  0.0106
  713SOL    HW1 2320   3.488   2.686   0.724 -0.9272  0.1261 -0.8221
  713SOL    HW2 2321   3.450   2.843   0.743  1.1331  0.3419  2.0325
  714SOL     OW 2322   2.488   5.634   2.248  0.1266  0.4384 -0.2191
  714SOL    HW1 2323   2.514   5.585   2.166  1.9206 -1.0609  1.1472
  714SOL    HW2 2324   2.392   5.615   2.270 -0.7166  1.7139 -2.4425
  715SOL     OW 2325   2.231   5.079   2.137  0.0207 -0.8887 -0.2808
  715SOL    HW1 2326   2.134   5.066   2.117 -0.0229  0.5558 -1.1747
  715SOL    HW2 2327   2.264   5.003   2.193 -1.5514 -1.5393 -0.1942
  716SOL     OW 2328   2.142   5.225   2.979  0.2916  0.0223 -0.4632
  716SOL    HW1 2329   2.196   5.154   2.933  1.6029  0.1045  0.8612
  716SOL    HW2 2330   2.159   5.313   2.935 -1.0445 -0.3881 -1.8702
  717SOL     OW 2331   3.885   1.981   3.042  0.8351 -0.0144  0.4135
  717SOL    HW1 2332   3.823   1.977   3.121 -2.1260 -1.1823 -1.7806
  717SOL    HW2 2333   3.941   1.898   3.041 -1.5285 -1.7371 -0.3693
  718SOL     OW 2334   4.259   3.374   3.687 -0.2306 -0.2976  0.0111
  718SOL    HW1 2335   4.211   3.321   3.617 -0.6030 -0.3179  0.2824
  718SOL    HW2 2336   4.299   3.311   3.753  2.8973 -0.5157 -1.8897
  719SOL     OW 2337   0.573   3.500   4.031  0.6444  0.3380 -0.0788
  719SOL    HW1 2338   0.488   3.496   4.084 -0.6145 -1.3831 -2.0298
  719SOL    HW2 2339   0.551   3.482   3.935  3.2534 -0.3027 -0.6188
  720SOL     OW 2340   3.434   0.623   2.985  0.0860  0.1172 -0.0791
  720SOL    HW1 2341   3.463   0.712   3.022  0.1605 -0.4248  1.2259
  720SOL    HW2 2342   3.514   0.574   2.952  0.3046 -0.1961  0.8789
  721SOL     OW 2343   4.392   3.084   1.952  0.4692  0.2667  0.6069
  721SOL    HW1 2344   4.444   3.021   2.010 -2.3180  0.0963  3.1444
  721SOL    HW2 2345   4.421   3.178   1.971  1.3839  0.0528  0.3059
  722SOL     OW 2346   2.042   4.922   2.482 -0.0315 -0.6390 -0.4532
  722SOL    HW1 2347   2.007   4.887   2.569  0.1112  2.7955  1.1631
  722SOL    HW2 2348   1.973   4.910   2.411 -1.6009 -0.4333  0.9840
  723SOL     OW 2349   1.712   3.267   3.154  0.1576  0.4631  0.6877
  723SOL    HW1 2350   1.704   3.290   3.058  2.2306 -0.5482  0.1953
  723SOL    HW2 2351   1.795   3.309   3.191  1.0455 -1.5504  1.1737
  724SOL     OW 2352   1.802   1.084   2.793  0.3025  0.7907 -0.2036
  724SOL    HW1 2353   1.795   1.113   2.697  0.0440 -0.6279 -0.6383
  724SOL    HW2 2354   1.712   1.090   2.836  0.4918  1.7932  0.0773
  725SOL     OW 2355   1.959   1.508   2.498 -0.1305  0.0814 -0.3257
  725SOL    HW1 2356   1.933   1.429   2.442  0.6994 -0.6054  0.2212
  725SOL    HW2 2357   1.879   1.566   2.513 -0.5267 -0.0981 -1.6052
  726SOL     OW 2358   2.388   2.864   0.653  0.1304  0.6312 -0.3049
  726SOL    HW1 2359   2.316   2.926   0.684 -2.6118 -2.2796 -0.2662
  726SOL    HW2 2360   2.372   2.841   0.557  1.9883  1.0915 -0.7619
  727SOL     OW 2361   2.063   3.625   1.288  0.1031  0.0533 -0.2037
  727SOL    HW1 2362   2.067   3.650   1.385  1.7820  0.9529 -0.4735
  727SOL    HW2 2363   1.968   3.606   1.263 -0.8858  3.0486  0.8285
  728SOL     OW 2364   0.242   3.158   3.502 -0.2385 -0.2189 -0.2308
  728SOL    HW1 2365   0.229   3.256   3.517  0.5373  0.1139 -1.5282
  728SOL    HW2 2366   0.311   3.145   3.431  0.3496 -1.7299  0.5707
  729SOL     OW 2367   1.956   2.494   4.963  0.1659 -0.0917 -0.1879
  729SOL    HW1 2368   1.939   2.421   4.897 -1.2016  1.5275 -1.7311
  729SOL    HW2 2369   2.046   2.480   5.004  0.6105 -1.7551 -1.5981
  730SOL     OW 2370   4.876   3.480   1.757 -0.0634  0.0663  0.1253
  730SOL    HW1 2371   4.890   3.426   1.840 -2.0179 -1.1696 -0.2821
  730SOL    HW2 2372   4.889   3.420   1.678  0.6958  0.9637 -0.4493
  731SOL     OW 2373   4.275   3.654   1.577  0.0899  0.4804 -0.0120
  731SOL    HW1 2374   4.333   3.578   1.608  0.4088  0.1200 -1.4449
  731SOL    HW2 2375   4.290   3.669   1.480  0.0821  2.4388  0.2528
  732SOL     OW 2376   4.863   2.384   3.372  0.1811 -0.8690 -0.6049
  732SOL    HW1 2377   4.952   2.339   3.362 -0.5749 -1.9589 -3.3705
  732SOL    HW2 2378   4.864   2.469   3.319  0.0925  0.0651  0.8283
  733SOL     OW 2379   0.683   3.213   4.384 -0.3648  0.1009  0.0963
  733SOL    HW1 2380   0.747   3.281   4.419 -0.8344  0.2706  0.6681
  733SOL    HW2 2381   0.663   3.232   4.288 -0.5691  0.8438  0.2744
  734SOL     OW 2382   5.481   2.963   3.581 -0.0717  0.3434  0.1584
  734SOL    HW1 2383   5.537   2.937   3.660  0.4559  1.9466  0.3544
  734SOL    HW2 2384   5.396   3.005   3.613  0.4687  1.6835 -0.0756
  735SOL     OW 2385   2.588   3.410   5.032 -0.4051 -0.4025 -0.0176
  735SOL    HW1 2386   2.680   3.447   5.038 -0.9613  0.7671  2.2687
  735SOL    HW2 2387   2.564   3.366   5.118 -1.2819 -2.5674 -1.2788
  736SOL     OW 2388   3.262   5.203   2.569  0.3440 -0.1402  0.0569
  736SOL    HW1 2389   3.341   5.143   2.583 -0.1964 -0.7960  0.3769
  736SOL    HW2 2390   3.201   5.195   2.648 -0.7652 -0.7820 -0.8299
  737SOL     OW 2391   4.701   4.029   2.580  0.5107 -0.4866 -0.3675
  737SOL    HW1 2392   4.608   3.993   2.587  0.2131  0.5707  1.5932
  737SOL    HW2 2393   4.698   4.120   2.540  0.7461 -0.5426 -0.5164
  738SOL     OW 2394   3.712   0.492   2.539  0.2359 -0.0325  0.4052
  738SOL    HW1 2395   3.644   0.559   2.570  1.8229  1.6277  0.4582
  738SOL    HW2 2396   3.668   0.426   2.478 -1.3162  1.2922  0.0208
  739SOL     OW 2397   1.557   2.776   3.340 -0.3486 -0.3751 -0.1105
  739SOL    HW1 2398   1.556   2.867   3.300  1.4105  0.3933  1.4051
  739SOL    HW2 2399   1.643   2.731   3.317 -1.1653 -1.6495 -0.7736
  740SOL     OW 2400   0.072   3.467   3.942 -0.6314  0.0509  0.2253
  740SOL    HW1 2401   0.094   3.553   3.896 -0.7806 -0.0281  0.0048
  740SOL    HW2 2402  -0.027   3.451   3.936 -0.4699 -0.6774 -0.6857
  741SOL     OW 2403   2.798   1.594   4.329  0.1339  0.1689 -0.0882
  741SOL    HW1 2404   2.722   1.629   4.384 -0.0823  1.3785 -1.1193
  741SOL    HW2 2405   2.874   1.659   4.335 -0.1831  0.7450 -1.8352
  742SOL     OW 2406   2.987   2.493   1.734  0.2740  0.3395  0.2414
  742SOL    HW1 2407   2.962   2.579   1.688  1.7669  0.0792 -1.1658
  742SOL    HW2 2408   3.087   2.490   1.743  0.3775 -1.8657 -1.0530
  743SOL     OW 2409   3.118   2.431   0.562 -0.4455  0.0920  0.3576
  743SOL    HW1 2410   3.030   2.439   0.608  0.4797 -2.7296  2.9037
  743SOL    HW2 2411   3.184   2.390   0.624  2.7133  1.9867 -1.4940
  744SOL     OW 2412   3.847   1.787   2.530 -0.3764 -1.0717  0.3341
  744SOL    HW1 2413   3.836   1.753   2.623 -0.6220 -1.9071  0.0115
  744SOL    HW2 2414   3.862   1.709   2.468  0.5199 -0.4756 -0.2189
  745SOL     OW 2415   2.863   0.885   3.192  0.4620  0.3541  0.3177
  745SOL    HW1 2416   2.873   0.960   3.127 -0.2263  1.7901  1.8293
  745SOL    HW2 2417   2.909   0.804   3.154  0.3480  1.2079 -1.7969
  746SOL     OW 2418   4.458   2.126   2.419 -0.2227 -0.0312 -0.0503
  746SOL    HW1 2419   4.430   2.217   2.392 -0.2669  0.4029  1.3829
  746SOL    HW2 2420   4.557   2.125   2.434 -0.3420  0.0200  0.7850
  747SOL     OW 2421   5.653   3.421   3.513 -0.4647 -0.0761  0.4322
  747SOL    HW1 2422   5.558   3.422   3.545 -0.5671 -0.1935  0.1353
  747SOL    HW2 2423   5.693   3.332   3.531 -1.1251 -0.8286 -1.4892
  748SOL     OW 2424   0.763   4.114   3.199  0.3104 -0.0616 -0.7906
  748SOL    HW1 2425   0.860   4.093   3.213  0.0164 -1.4794 -0.7759
  748SOL    HW2 2426   0.729   4.167   3.277  0.5486 -1.4470  0.2956
  749SOL     OW 2427   1.154   2.430   3.188 -0.2869  0.0860  0.4824
  749SOL    HW1 2428   1.091   2.435   3.265  0.4719  1.0678  1.0581
  749SOL    HW2 2429   1.231   2.491   3.205  0.3966 -0.4532 -0.5964
  750SOL     OW 2430   0.797   2.820   4.121 -0.1568 -0.5244  0.1365
  750SOL    HW1 2431   0.832   2.727   4.136 -2.5843 -1.0595  3.6513
  750SOL    HW2 2432   0.815   2.847   4.026  4.4943 -2.7843  0.1197
  751SOL     OW 2433   3.434   5.597   2.216 -0.6658 -0.3401 -0.5410
  751SOL    HW1 2434   3.510   5.653   2.248 -1.1837 -0.0115  0.1329
  751SOL    HW2 2435   3.348   5.638   2.245 -1.1163 -0.6201 -1.4390
  752SOL     OW 2436   1.096   4.311   2.709  0.4481  0.2774 -0.3229
  752SOL    HW1 2437   1.101   4.351   2.618 -1.1886  1.3895  0.0141
  752SOL    HW2 2438   1.009   4.262   2.718  0.0692  1.1445  0.9815
  753SOL     OW 2439   2.439   1.041   2.637 -0.0064 -0.3178 -0.2512
  753SOL    HW1 2440   2.446   0.976   2.561  1.1031 -0.6678  0.1320
  753SOL    HW2 2441   2.519   1.031   2.696 -0.5358  0.4062  0.6098
  754SOL     OW 2442   3.379   0.981   2.672  0.1252 -0.2110 -0.4050
  754SOL    HW1 2443   3.449   1.002   2.604  0.7061  1.7271  0.7142
  754SOL    HW2 2444   3.307   1.050   2.669 -0.1055 -0.3763  0.5994
  755SOL     OW 2445   3.348   3.988   2.775 -0.4920  0.0305  0.6281
  755SOL    HW1 2446   3.269   3.993   2.835  1.7107 -1.2995  3.8805
  755SOL    HW2 2447   3.338   3.908   2.715 -1.8307  0.2412  0.5227
  756SOL     OW 2448   1.905   4.531   3.021 -0.4868  0.0946  0.0391
  756SOL    HW1 2449   1.867   4.495   3.106 -2.7146 -1.3825 -1.4839
  756SOL    HW2 2450   1.869   4.623   3.006 -0.8772 -0.0275  0.2119
  757SOL     OW 2451   3.278   2.734   3.965  0.3367 -0.3916  0.3104
  757SOL    HW1 2452   3.182   2.750   3.986  0.1390 -1.1769  0.0402
  757SOL    HW2 2453   3.297   2.761   3.870 -1.0565 -5.4647 -1.7627
  758SOL     OW 2454   4.378   4.783   2.520  0.0978  0.2725 -0.8990
  758SOL    HW1 2455   4.450   4.852   2.530 -0.2545  0.2929  3.9861
  758SOL    HW2 2456   4.411   4.695   2.554 -1.7238 -0.0552  0.1613
  759SOL     OW 2457   3.332   3.048   2.951 -0.0081 -0.3045  0.3794
  759SOL    HW1 2458   3.284   3.131   2.925  1.0018  1.1272  2.6901
  759SOL    HW2 2459   3.270   2.989   3.003 -1.2970 -2.0362 -2.8224
  760SOL     OW 2460   2.800   5.510   2.249 -0.4508  0.2590  0.6722
  760SOL    HW1 2461   2.717   5.522   2.194 -0.3833  1.8094  0.8584
  760SOL    HW2 2462   2.871   5.469   2.193 -0.3006  2.0416 -0.5306
  761SOL     OW 2463   2.332   3.090   1.857  0.1826  0.6389 -0.6238
  761SOL    HW1 2464   2.369   2.997   1.853 -0.9911  0.0200  1.4862
  761SOL    HW2 2465   2.236   3.089   1.830  0.5439  1.5264 -2.0451
  762SOL     OW 2466   0.247   2.737   3.934  0.0110  0.6759  0.1194
  762SOL    HW1 2467   0.177   2.690   3.987 -0.2096  0.6516 -0.1933
  762SOL    HW2 2468   0.322   2.764   3.995  0.3293 -0.4209  0.2360
  763SOL     OW 2469   2.077   2.852   2.269 -0.3011 -0.2159 -0.1903
  763SOL    HW1 2470   2.069   2.810   2.360 -2.0019 -1.6633 -0.9523
  763SOL    HW2 2471   2.069   2.951   2.278 -1.6066 -0.4007  1.1435
  764SOL     OW 2472   3.656   1.856   1.827  0.7351  0.3107 -0.7221
  764SOL    HW1 2473   3.712   1.777   1.854 -0.3380 -0.2701 -0.1453
  764SOL    HW2 2474   3.632   1.849   1.730  0.1544 -0.3800 -0.5298
  765SOL     OW 2475   2.773   3.124   4.245 -0.3743  0.0406  0.4273
  765SOL    HW1 2476   2.796   3.222   4.248 -0.3973  0.0412  2.5506
  765SOL    HW2 2477   2.857   3.072   4.231 -0.0285  0.3087  1.3930
  766SOL     OW 2478   1.909   4.846   2.714  0.9672 -0.1824 -0.0597
  766SOL    HW1 2479   1.883   4.913   2.783  0.7128  0.6482 -0.9384
  766SOL    HW2 2480   1.995   4.802   2.741  0.9327  0.2116  0.7124
  767SOL     OW 2481   1.319   3.046   3.414 -0.0481 -0.0348 -0.7621
  767SOL    HW1 2482   1.414   3.039   3.385 -0.5546 -2.1120 -2.0926
  767SOL    HW2 2483   1.315   3.097   3.500  2.2416  0.1353 -0.6903
  768SOL     OW 2484   2.780   1.989   4.003 -0.3385  0.1763 -0.3230
  768SOL    HW1 2485   2.806   2.060   3.938 -0.1926  2.4477  2.0624
  768SOL    HW2 2486   2.683   1.999   4.025  0.6664  3.2522  3.8975
  769SOL     OW 2487   0.028   2.563   3.423 -0.7534 -0.1266 -0.0792
  769SOL    HW1 2488   0.106   2.516   3.466  0.4987  1.7930 -0.1133
  769SOL    HW2 2489  -0.014   2.625   3.491 -0.6931  0.6545 -0.7402
  770SOL     OW 2490   4.319   1.578   3.024  0.0081 -0.2919 -0.6878
  770SOL    HW1 2491   4.418   1.568   3.009  0.5847  0.4534  2.0178
  770SOL    HW2 2492   4.287   1.501   3.078 -0.4049  0.5488  0.2993
  771SOL     OW 2493   4.133   5.098   3.383  0.3966  0.2533  0.0670
  771SOL    HW1 2494   4.208   5.134   3.328  0.2462  0.2589 -0.1366
  771SOL    HW2 2495   4.071   5.046   3.324  0.2108  0.2955  0.2229
  772SOL     OW 2496   0.652   3.757   2.955 -0.0057 -0.5160  0.0755
  772SOL    HW1 2497   0.673   3.661   2.971  1.7973 -0.2600 -0.5476
  772SOL    HW2 2498   0.686   3.784   2.865  1.1562  1.1517  0.9597
  773SOL     OW 2499   5.711   2.984   4.110 -0.4014  0.1383  0.0818
  773SOL    HW1 2500   5.784   3.007   4.045 -0.6543 -0.5032 -0.4480
  773SOL    HW2 2501   5.643   3.057   4.110 -0.9488 -0.3439 -1.2054
  774SOL     OW 2502   2.231   2.517   3.047 -0.2472 -0.5296  0.0401
  774SOL    HW1 2503   2.302   2.476   3.104 -0.1924 -1.5935 -0.7686
  774SOL    HW2 2504   2.268   2.598   3.001  0.0418 -0.3235  0.6266
  775SOL     OW 2505   3.300   1.965   0.993  0.1307 -0.2260  0.1803
  775SOL    HW1 2506   3.218   1.910   0.976 -0.1406 -0.1557  1.1762
  775SOL    HW2 2507   3.353   1.922   1.067  0.7481 -0.0088 -0.1293
  776SOL     OW 2508   5.478   3.754   3.323 -0.2555  0.0064  1.1898
  776SOL    HW1 2509   5.455   3.783   3.230 -1.3590  0.5344  1.6106
  776SOL    HW2 2510   5.554   3.690   3.319 -0.2182  0.0991 -0.0696
  777SOL     OW 2511   3.729   5.597   3.032 -0.6423 -0.3655 -0.0742
  777SOL    HW1 2512   3.649   5.621   3.087  0.0706 -1.4103  1.4719
  777SOL    HW2 2513   3.749   5.500   3.042  1.5920  0.0995  0.6677
  778SOL     OW 2514   2.870   2.918   0.300  0.7185 -0.1578  0.6966
  778SOL    HW1 2515   2.845   2.821   0.300 -0.2489  0.0834  0.2979
  778SOL    HW2 2516   2.945   2.932   0.365  2.0804 -1.4729 -0.5030
  779SOL     OW 2517   3.248   4.135   3.578  0.1764  0.1156 -0.2179
  779SOL    HW1 2518   3.172   4.075   3.602  0.0022  0.7821  1.0080
  779SOL    HW2 2519   3.231   4.226   3.616  1.6912  0.2161  0.2828
  780SOL     OW 2520   3.957   3.860   2.368  0.3937 -0.4530 -0.0759
  780SOL    HW1 2521   3.988   3.938   2.314  1.1622 -1.8191 -1.7147
  780SOL    HW2 2522   3.888   3.890   2.433  1.4063  1.7571  0.0488
  781SOL     OW 2523   3.491   2.022   4.014 -0.7639 -0.5152  0.0064
  781SOL    HW1 2524   3.533   1.932   3.999  0.2381 -0.0571 -0.0067
  781SOL    HW2 2525   3.561   2.086   4.046 -1.7313 -0.0709  1.3566
  782SOL     OW 2526   4.215   3.586   4.249  0.2025 -0.2388  0.0808
  782SOL    HW1 2527   4.124   3.545   4.260 -0.1524  0.8490  1.4188
  782SOL    HW2 2528   4.271   3.565   4.329  0.0123  1.8171  0.8059
  783SOL     OW 2529   2.836   2.420   1.952 -0.1480  0.0346 -0.3733
  783SOL    HW1 2530   2.909   2.421   1.883  0.2935 -2.7925 -0.0441
  783SOL    HW2 2531   2.754   2.378   1.913  0.1619 -1.7602  0.8226
  784SOL     OW 2532   3.344   0.022   2.046  0.5607  0.5323  0.4146
  784SOL    HW1 2533   3.429  -0.027   2.028  1.4003  2.5603 -1.6095
  784SOL    HW2 2534   3.299   0.043   1.958 -2.2655 -0.7702  1.4075
  785SOL     OW 2535   4.296   2.626   4.239  0.2140  0.0928 -0.0079
  785SOL    HW1 2536   4.394   2.616   4.221  0.0117 -2.9509  0.0572
  785SOL    HW2 2537   4.283   2.656   4.333  1.0973 -0.0188  0.1618
  786SOL     OW 2538   0.679   2.944   3.000 -0.0560 -0.5326  0.3846
  786SOL    HW1 2539   0.750   2.882   3.034  0.2563 -0.3734  0.0402
  786SOL    HW2 2540   0.656   2.918   2.907  1.3913  0.9461 -0.4419
  787SOL     OW 2541   2.567   3.792   1.517  0.4361 -0.2208 -0.2712
  787SOL    HW1 2542   2.493   3.819   1.579 -0.1087  1.0902 -1.4113
  787SOL    HW2 2543   2.539   3.710   1.467  0.1671 -0.3030  0.0075
  788SOL     OW 2544   4.803   3.576   3.932  0.1346  0.2096  0.0020
  788SOL    HW1 2545   4.729   3.508   3.925  1.2237 -1.3612  2.3729
  788SOL    HW2 2546   4.865   3.566   3.854  0.3787 -1.7172  0.4002
  789SOL     OW 2547   4.572   2.682   4.200 -0.2155  0.0181 -0.0802
  789SOL    HW1 2548   4.640   2.668   4.127 -1.1010  1.4174 -1.2212
  789SOL    HW2 2549   4.587   2.771   4.243 -1.8480  0.7726 -0.9816
  790SOL     OW 2550   3.512   5.305   3.142  0.1980  0.0228 -0.2362
  790SOL    HW1 2551   3.436   5.245   3.118 -0.3643  0.4053  0.5814
  790SOL    HW2 2552   3.493   5.398   3.109  1.1252 -0.2329 -1.6177
  791SOL     OW 2553   3.771   3.977   4.100  0.2512  0.2683 -0.2468
  791SOL    HW1 2554   3.815   3.959   4.012 -0.0294  0.1475 -0.3591
  791SOL    HW2 2555   3.686   4.027   4.085 -0.5003 -0.9495 -0.1375
  792SOL     OW 2556   2.972   1.871   1.671 -0.4907  0.5218 -0.1655
  792SOL    HW1 2557   2.879   1.899   1.649 -0.0598  1.3480 -0.9716
  792SOL    HW2 2558   3.036   1.942   1.643  0.3590  0.1647  0.7884
  793SOL     OW 2559   2.423   3.632   1.875  0.8861 -0.3899 -0.0595
  793SOL    HW1 2560   2.368   3.567   1.822  1.7951 -0.5429 -0.8430
  793SOL    HW2 2561   2.454   3.588   1.959 -0.6769 -0.1038  0.7022
  794SOL     OW 2562   4.493   2.146   3.534 -0.2658  0.1269  0.0912
  794SOL    HW1 2563   4.573   2.142   3.594  0.8684  1.4724 -1.2664
  794SOL    HW2 2564   4.444   2.059   3.539  0.0756  0.0135  2.5243
  795SOL     OW 2565   2.643   4.245   1.336 -0.0848 -0.1191 -0.1339
  795SOL    HW1 2566   2.663   4.148   1.352  0.6143 -0.0905 -0.7652
  795SOL    HW2 2567   2.725   4.289   1.298 -0.4233  0.7021  0.0731
  796SOL     OW 2568   3.413   3.240   1.667  0.0308  0.2409  0.3581
  796SOL    HW1 2569   3.426   3.211   1.762  1.6102  0.3095  0.1894
  796SOL    HW2 2570   3.389   3.161   1.611 -1.0775  0.2302  0.8377
  797SOL     OW 2571   4.001   0.060   1.749  0.3103  0.4199  0.1741
  797SOL    HW1 2572   3.923  -0.003   1.747 -0.1298  0.9551 -0.6291
  797SOL    HW2 2573   3.974   0.143   1.797  0.0400  1.0101 -0.9651
  798SOL     OW 2574   1.851   3.301   2.399  0.6149  0.5076 -0.1392
  798SOL    HW1 2575   1.860   3.398   2.379 -0.3817  0.1730 -2.4890
  798SOL    HW2 2576   1.872   3.285   2.496 -1.4167  3.3557  0.8840
  799SOL     OW 2577   0.709   3.809   2.704 -0.1466  0.1383 -0.2704
  799SOL    HW1 2578   0.665   3.759   2.629 -1.3541  2.2612 -1.0932
  799SOL    HW2 2579   0.802   3.833   2.677  0.3149 -1.3031 -0.0103
  800SOL     OW 2580   1.332   2.058   2.961  0.2826 -0.1255  0.0558
  800SOL    HW1 2581   1.357   1.966   2.933 -1.2428 -0.5241 -0.0598
  800SOL    HW2 2582   1.287   2.055   3.050 -1.0798  0.3226 -0.6005
  801SOL     OW 2583   1.693   4.033   2.538 -0.3033 -0.0718  0.0263
  801SOL    HW1 2584   1.647   3.945   2.541 -1.4606  0.4766 -0.7979
  801SOL    HW2 2585   1.628   4.105   2.564  0.2127  0.6779 -0.7087
  802SOL     OW 2586   3.757   0.309   2.758 -0.6228  0.1162 -0.0332
  802SOL    HW1 2587   3.750   0.382   2.689 -0.1041  1.2171  1.0398
  802SOL    HW2 2588   3.717   0.226   2.721  1.6615 -0.0023 -2.5695
  803SOL     OW 2589   2.813   2.557   4.244 -0.1397 -0.0772 -0.6416
  803SOL    HW1 2590   2.899   2.519   4.277 -0.9510 -2.6833 -1.3484
  803SOL    HW2 2591   2.780   2.625   4.310  1.9569  0.3172  0.0799
  804SOL     OW 2592   2.765   1.320   3.137  0.0275  0.0764  0.0993
  804SOL    HW1 2593   2.819   1.360   3.211  0.9548 -0.9635  0.0059
  804SOL    HW2 2594   2.688   1.271   3.176 -1.3895  2.2319  0.2031
  805SOL     OW 2595   2.327   1.015   2.219  0.3627  0.5917  0.2799
  805SOL    HW1 2596   2.286   1.081   2.282  2.0593  1.9414  0.0264
  805SOL    HW2 2597   2.348   1.060   2.133 -1.4091 -1.0952 -1.1419
  806SOL     OW 2598   2.973   2.226   4.402  0.3813  0.9520 -0.0953
  806SOL    HW1 2599   3.057   2.280   4.409  1.0090  0.1513 -1.1303
  806SOL    HW2 2600   2.970   2.183   4.312 -1.1974  1.0348 -0.0997
  807SOL     OW 2601   3.205   3.555   4.683 -0.9620  0.1820 -0.2328
  807SOL    HW1 2602   3.294   3.584   4.648 -1.2725  0.4035 -0.8600
  807SOL    HW2 2603   3.144   3.634   4.688 -1.0271  0.0903  0.5087
  808SOL     OW 2604   4.561   2.156   1.812 -0.2921 -0.2608 -0.1021
  808SOL    HW1 2605   4.513   2.240   1.835  1.9418  1.2866 -0.7894
  808SOL    HW2 2606   4.596   2.162   1.718  0.7966 -1.5177  0.1851
  809SOL     OW 2607   2.208   1.209   2.365  0.3542 -0.3895 -0.1512
  809SOL    HW1 2608   2.228   1.235   2.459 -0.2130 -0.5421  0.0126
  809SOL    HW2 2609   2.109   1.201   2.352  0.4553 -1.1516 -0.5432
  810SOL     OW 2610   2.038   2.236   3.687 -0.0667  0.3934  0.2843
  810SOL    HW1 2611   2.021   2.224   3.785 -0.8208 -0.3559  0.0719
  810SOL    HW2 2612   1.956   2.273   3.644  0.0323  0.0906 -0.1724
  811SOL     OW 2613   2.543   2.999   2.203  0.0148  0.4565 -0.4374
  811SOL    HW1 2614   2.577   2.995   2.297  0.2271  1.3694 -0.4717
  811SOL    HW2 2615   2.532   2.905   2.169  1.2245  0.1233  0.0296
  812SOL     OW 2616   2.410   4.365   2.386 -0.4083 -0.2593 -0.6075
  812SOL    HW1 2617   2.373   4.349   2.477  0.4858 -0.3263 -0.2541
  812SOL    HW2 2618   2.461   4.451   2.385  1.6505 -1.4365 -0.3904
  813SOL     OW 2619   3.851   0.154   1.365 -0.3378  0.1538 -0.0245
  813SOL    HW1 2620   3.859   0.251   1.342  0.7393  0.2656  0.7082
  813SOL    HW2 2621   3.921   0.131   1.434 -1.3808 -0.8623  0.7353
  814SOL     OW 2622   4.846   4.455   2.974  0.1671  0.0336 -0.3152
  814SOL    HW1 2623   4.925   4.394   2.984  0.8752  0.8412 -0.8865
  814SOL    HW2 2624   4.780   4.413   2.912  0.8107 -0.0069 -0.9866
  815SOL     OW 2625   5.742   2.566   3.164  0.6815 -1.1938 -0.6982
  815SOL    HW1 2626   5.774   2.578   3.257  2.2666 -1.6293 -1.1585
  815SOL    HW2 2627   5.756   2.471   3.136  0.5079 -0.9970 -1.4896
  816SOL     OW 2628   3.345   0.811   2.102  0.2466  0.5077  0.2857
  816SOL    HW1 2629   3.294   0.758   2.170  1.7131 -0.8939  0.3662
  816SOL    HW2 2630   3.281   0.857   2.041 -1.1037 -0.8985  0.5805
  817SOL     OW 2631   2.760   0.939   2.356 -0.2594 -0.5396  0.8903
  817SOL    HW1 2632   2.786   0.859   2.409 -0.4736 -2.7399 -2.0756
  817SOL    HW2 2633   2.812   0.941   2.271  0.1751  2.8826  1.0753
  818SOL     OW 2634   4.634   2.151   3.939  0.0493  0.6877 -0.1487
  818SOL    HW1 2635   4.710   2.188   3.992 -1.1072 -0.1132  2.2305
  818SOL    HW2 2636   4.548   2.189   3.973 -0.7209  0.9064 -2.1866
  819SOL     OW 2637   3.643   5.506   1.292 -0.3362 -0.7893 -0.1352
  819SOL    HW1 2638   3.712   5.576   1.277 -1.1388 -0.4038 -2.4219
  819SOL    HW2 2639   3.554   5.549   1.301 -0.2747 -1.1727  4.1100
  820SOL     OW 2640   4.840   3.491   3.410  0.0033 -0.1323 -0.1307
  820SOL    HW1 2641   4.900   3.552   3.358 -1.4896  1.5440  0.0200
  820SOL    HW2 2642   4.825   3.407   3.357  1.7639 -0.2313 -0.5348
  821SOL     OW 2643   3.334   5.481   1.505 -0.3173 -0.4436  0.3562
  821SOL    HW1 2644   3.350   5.551   1.575 -3.1739 -0.2095  0.8800
  821SOL    HW2 2645   3.366   5.393   1.540  0.9208  0.1355  0.7482
  822SOL     OW 2646   2.370   4.425   1.690 -0.2301  0.4224  0.4362
  822SOL    HW1 2647   2.317   4.390   1.613  1.1607  1.8785 -1.2812
  822SOL    HW2 2648   2.379   4.525   1.681 -0.6821  0.7628  2.9441
  823SOL     OW 2649   2.821   5.536   3.118 -0.3146 -0.6319  0.7290
  823SOL    HW1 2650   2.756   5.478   3.069  0.1869 -1.5233  1.0968
  823SOL    HW2 2651   2.892   5.479   3.158 -0.2075  0.1698  1.7187
  824SOL     OW 2652   0.576   3.459   3.122  0.0435  0.6090  0.5782
  824SOL    HW1 2653   0.597   3.364   3.101 -2.0639  0.2966 -0.2898
  824SOL    HW2 2654   0.621   3.484   3.208  0.5248 -1.1970  0.8843
  825SOL     OW 2655   5.712   2.819   3.114  0.3189 -0.0782  0.6679
  825SOL    HW1 2656   5.805   2.851   3.092 -0.9286  1.9471 -2.3273
  825SOL    HW2 2657   5.714   2.720   3.127  3.0586  0.0403  1.9750
  826SOL     OW 2658   4.727   3.005   1.523 -0.4741  0.5056  0.4742
  826SOL    HW1 2659   4.658   3.067   1.485 -0.4914  1.6303  2.2349
  826SOL    HW2 2660   4.682   2.939   1.584 -0.2683 -0.3354 -0.2581
  827SOL     OW 2661   2.983   5.381   2.112  0.0497 -0.3871  0.0266
  827SOL    HW1 2662   2.984   5.363   2.014  1.3026  2.4290 -0.6157
  827SOL    HW2 2663   3.006   5.298   2.162 -2.7967 -2.4589 -1.8509
  828SOL     OW 2664   0.413   3.497   2.792 -0.1512 -0.0930  0.2960
  828SOL    HW1 2665   0.431   3.493   2.891  1.2204  0.0469  0.0699
  828SOL    HW2 2666   0.327   3.449   2.773 -0.3405 -0.2955  1.5337
  829SOL     OW 2667   2.986   0.081   2.581  0.5236  0.1932  0.0107
  829SOL    HW1 2668   2.914   0.057   2.515  2.8252 -0.9974 -2.2496
  829SOL    HW2 2669   3.031   0.165   2.550  2.6050 -1.1729 -0.9110
  830SOL     OW 2670   5.596   2.186   3.937 -0.8422 -0.3166 -0.2598
  830SOL    HW1 2671   5.526   2.118   3.917 -1.8756  0.3249  0.9842
  830SOL    HW2 2672   5.616   2.238   3.854  2.5674 -4.2732 -2.2678
  831SOL     OW 2673   3.690   2.407   1.199  0.0450 -0.4010 -0.3671
  831SOL    HW1 2674   3.673   2.314   1.168  0.4716  0.1899 -2.4908
  831SOL    HW2 2675   3.640   2.471   1.141 -1.5558  0.6765  2.0357
  832SOL     OW 2676   3.575   2.451   2.573 -0.5200  0.2652 -0.5953
  832SOL    HW1 2677   3.628   2.369   2.592 -1.1791 -0.1874 -0.6528
  832SOL    HW2 2678   3.621   2.505   2.503  0.8031  0.8321  0.6578
  833SOL     OW 2679   1.832   2.713   4.869  0.1212  0.4532 -0.3540
  833SOL    HW1 2680   1.811   2.773   4.946  2.2908  0.1716  0.5126
  833SOL    HW2 2681   1.890   2.638   4.901 -1.0902 -1.1527 -1.7697
  834SOL     OW 2682   4.299   3.333   1.761 -0.0579 -0.2826 -0.0160
  834SOL    HW1 2683   4.359   3.413   1.760 -0.7420  0.2325 -1.0018
  834SOL    HW2 2684   4.356   3.250   1.758  0.6420  0.1953 -2.6772
  835SOL     OW 2685   2.161   3.729   4.736 -0.0360 -0.0914 -0.0627
  835SOL    HW1 2686   2.070   3.748   4.699  0.7562  1.5059 -1.3373
  835SOL    HW2 2687   2.216   3.681   4.667  0.2463 -0.5981  0.5038
  836SOL     OW 2688   0.808   2.477   3.241  0.3988 -0.0873 -0.0838
  836SOL    HW1 2689   0.828   2.460   3.338 -1.1475  0.8720  0.4448
  836SOL    HW2 2690   0.801   2.576   3.226 -0.9265 -0.2591 -0.8077
  837SOL     OW 2691   3.276   2.322   0.757 -0.1268 -0.1151 -0.0065
  837SOL    HW1 2692   3.226   2.302   0.841  0.8551  0.9088  0.8569
  837SOL    HW2 2693   3.345   2.251   0.742 -0.0446 -0.0929  0.2630
  838SOL     OW 2694   2.911   0.843   2.145  0.6595 -0.0001  0.4357
  838SOL    HW1 2695   2.898   0.745   2.132  1.1635 -0.1175  0.7869
  838SOL    HW2 2696   2.884   0.892   2.061  1.9004 -0.5633 -0.3117
  839SOL     OW 2697   2.121   3.580   5.318  0.3427  0.2074  0.5881
  839SOL    HW1 2698   2.214   3.560   5.287  0.5879  0.7133  0.9827
  839SOL    HW2 2699   2.112   3.554   5.414 -0.1980 -0.6734  0.3126
  840SOL     OW 2700   2.213   2.111   3.537  0.0190  0.1327  0.2754
  840SOL    HW1 2701   2.154   2.169   3.594 -3.5420 -1.5845 -1.3463
  840SOL    HW2 2702   2.219   2.151   3.445  2.5277  0.8874  0.6927
  841SOL     OW 2703   0.559   3.557   2.558 -0.7610 -0.3651  0.1377
  841SOL    HW1 2704   0.518   3.560   2.650 -0.3597 -0.7313  0.3365
  841SOL    HW2 2705   0.577   3.461   2.535  0.5109 -0.1722  0.2981
  842SOL     OW 2706   1.767   3.683   1.798 -0.4531 -0.2794 -0.2151
  842SOL    HW1 2707   1.773   3.727   1.708 -0.0929  0.4164  0.1337
  842SOL    HW2 2708   1.693   3.617   1.797 -1.5139  0.8638 -0.5548
  843SOL     OW 2709   3.569   4.862   2.279 -0.6524  0.1196  0.5248
  843SOL    HW1 2710   3.529   4.891   2.365 -1.9392 -0.6443  0.2049
  843SOL    HW2 2711   3.499   4.817   2.223  0.4627 -0.5350 -0.3909
  844SOL     OW 2712   4.485   1.625   2.620  0.3262 -0.6109 -0.0841
  844SOL    HW1 2713   4.473   1.718   2.656 -1.1318 -1.2626  1.2071
  844SOL    HW2 2714   4.483   1.628   2.520 -0.3552  0.6818 -0.0551
  845SOL     OW 2715   0.184   3.674   3.826  0.1677 -0.2884  0.6017
  845SOL    HW1 2716   0.141   3.668   3.736  1.0691 -0.0863  0.1460
  845SOL    HW2 2717   0.226   3.764   3.836  1.5862 -0.9116  0.5104
  846SOL     OW 2718   3.719   2.518   4.377  1.5559  0.2255  0.6352
  846SOL    HW1 2719   3.699   2.606   4.336  3.3967  0.8924  1.0692
  846SOL    HW2 2720   3.641   2.489   4.432 -0.1674  0.2347 -1.6780
  847SOL     OW 2721   2.242   2.119   2.486  0.2377 -0.1490 -0.0985
  847SOL    HW1 2722   2.177   2.044   2.496  1.4858 -1.0639  1.6284
  847SOL    HW2 2723   2.333   2.082   2.465  1.3597  0.6016  2.8686
  848SOL     OW 2724   2.814   5.767   2.385  0.8582  0.4934 -0.4390
  848SOL    HW1 2725   2.717   5.792   2.384  0.3757 -1.0651  1.5418
  848SOL    HW2 2726   2.823   5.672   2.354  1.7314  0.5419 -0.3513
  849SOL     OW 2727   4.069   3.318   2.372  0.0716  0.1977  0.5440
  849SOL    HW1 2728   3.978   3.358   2.384 -0.2456 -0.0452 -0.8081
  849SOL    HW2 2729   4.062   3.238   2.312  1.1614  0.1252  0.4941
  850SOL     OW 2730   3.916   5.313   3.283 -0.0402 -0.4695 -0.0713
  850SOL    HW1 2731   4.000   5.345   3.240 -0.3826  0.3015 -0.1836
  850SOL    HW2 2732   3.935   5.286   3.378  0.8014 -2.5423 -0.7676
  851SOL     OW 2733   1.168   3.387   3.995 -0.1493  0.1574  0.1025
  851SOL    HW1 2734   1.115   3.328   4.057  0.3442 -1.3688 -0.8632
  851SOL    HW2 2735   1.124   3.388   3.905  0.0083  1.0623  0.0277
  852SOL     OW 2736   4.346   5.008   2.905 -0.0070 -0.1861 -0.0274
  852SOL    HW1 2737   4.427   4.972   2.951 -0.6136 -0.2820  0.9893
  852SOL    HW2 2738   4.267   4.951   2.927 -0.2515 -0.4366 -1.4848
  853SOL     OW 2739   3.758   4.174   2.636  0.6453 -1.1011 -0.2423
  853SOL    HW1 2740   3.835   4.195   2.697 -0.3697 -0.2494  0.7850
  853SOL    HW2 2741   3.675   4.162   2.690 -0.2747 -0.4224 -1.4434
  854SOL     OW 2742   1.765   4.453   1.612 -0.1207 -0.3000 -0.7065
  854SOL    HW1 2743   1.758   4.418   1.706  1.4451  0.3099 -0.3295
  854SOL    HW2 2744   1.694   4.411   1.556 -3.1550  1.5802  1.4081
  855SOL     OW 2745   2.787   3.478   3.908 -0.2690  0.2456 -0.1510
  855SOL    HW1 2746   2.791   3.458   3.810 -1.0185  0.2546 -0.1859
  855SOL    HW2 2747   2.837   3.563   3.926 -0.3014  0.3511 -0.5534
  856SOL     OW 2748   3.447   2.572   4.090 -0.1567  0.2740  0.0406
  856SOL    HW1 2749   3.538   2.614   4.093 -0.2930  0.6115 -0.5343
  856SOL    HW2 2750   3.384   2.631   4.040 -0.5569 -0.2165 -0.0505
  857SOL     OW 2751   2.972   2.642   1.486 -0.7654  0.6194  0.9509
  857SOL    HW1 2752   2.895   2.578   1.481  0.3730 -0.8127  1.0620
  857SOL    HW2 2753   3.046   2.609   1.429  0.4292  1.0054  2.2177
  858SOL     OW 2754   2.203   1.365   2.945 -0.2472 -0.0755 -0.4710
  858SOL    HW1 2755   2.254   1.324   3.020 -1.4054  1.0453  0.9948
  858SOL    HW2 2756   2.131   1.303   2.915 -1.7608  0.6504  1.4890
  859SOL     OW 2757   2.595   3.209   0.061 -0.0789 -0.7009 -0.0693
  859SOL    HW1 2758   2.533   3.173   0.131 -0.1380 -0.5800 -0.0597
  859SOL    HW2 2759   2.688   3.178   0.081  0.2657  1.0439  1.2573
  860SOL     OW 2760   0.913   2.405   3.489 -0.2510 -0.2649 -0.1169
  860SOL    HW1 2761   0.865   2.346   3.554 -3.0279  1.0386 -0.8077
  860SOL    HW2 2762   0.930   2.494   3.532 -0.2929 -0.0610 -0.5139
  861SOL     OW 2763   4.025   3.663   1.634 -0.5821 -0.0539 -0.1306
  861SOL    HW1 2764   4.123   3.679   1.621 -0.9438  1.5956 -1.1410
  861SOL    HW2 2765   4.001   3.684   1.729 -0.2416  1.3409 -0.3300
  862SOL     OW 2766   2.936   5.426   1.507 -0.0517 -0.0291  0.0923
  862SOL    HW1 2767   2.978   5.514   1.531  0.4950  0.1926 -1.5737
  862SOL    HW2 2768   2.990   5.382   1.435 -1.8696 -0.4102 -1.1151
  863SOL     OW 2769   4.603   3.606   3.356 -0.3787  0.4059  0.7029
  863SOL    HW1 2770   4.616   3.703   3.373  0.3568  0.9669 -2.3328
  863SOL    HW2 2771   4.689   3.557   3.375  0.3499  0.9657 -0.9194
  864SOL     OW 2772   1.650   3.579   3.787 -0.1255  0.0368 -0.2758
  864SOL    HW1 2773   1.655   3.495   3.732  0.7476 -1.3205  1.7384
  864SOL    HW2 2774   1.559   3.585   3.828 -0.3451  0.3473 -0.7990
  865SOL     OW 2775   1.957   3.485   4.264 -0.0105 -0.1236 -0.4289
  865SOL    HW1 2776   1.912   3.446   4.184  0.3944  1.6672 -1.5958
  865SOL    HW2 2777   1.896   3.476   4.343  0.0414 -2.9118 -0.6259
  866SOL     OW 2778   3.694   4.090   3.058  0.1987  0.5868  0.4723
  866SOL    HW1 2779   3.636   4.064   3.136  0.7515 -0.8247  0.4470
  866SOL    HW2 2780   3.789   4.095   3.089  0.3190  0.8228  0.0654
  867SOL     OW 2781   3.981   2.743   4.250 -0.0711  0.2612  0.0156
  867SOL    HW1 2782   4.022   2.666   4.200  0.1845  0.2884  0.1809
  867SOL    HW2 2783   3.993   2.727   4.348 -2.1814 -0.7183  0.1747
  868SOL     OW 2784   2.341   0.639   2.511 -0.0205  0.1646  0.2013
  868SOL    HW1 2785   2.251   0.669   2.541 -1.1157 -1.9550 -0.7408
  868SOL    HW2 2786   2.387   0.714   2.465 -2.3557  0.6485 -1.5055
  869SOL     OW 2787   4.806   2.686   4.054  0.0056  0.4082 -0.1407
  869SOL    HW1 2788   4.862   2.621   4.106 -1.1232  0.5410  1.3104
  869SOL    HW2 2789   4.790   2.767   4.110 -0.5242  0.9382 -1.0467
  870SOL     OW 2790   3.661   2.822   4.481  0.1908  0.1980  0.0239
  870SOL    HW1 2791   3.583   2.764   4.504  0.4779  0.0928  0.7562
  870SOL    HW2 2792   3.629   2.899   4.425 -0.5266  0.4447  0.7535
  871SOL     OW 2793   5.014   3.723   3.326  0.2990 -0.2057 -0.9827
  871SOL    HW1 2794   5.097   3.705   3.378 -0.0961 -1.4860 -0.7642
  871SOL    HW2 2795   4.944   3.761   3.387  0.6977  0.8667 -1.1661
  872SOL     OW 2796   4.742   4.559   3.208 -0.0176  0.0388 -0.1849
  872SOL    HW1 2797   4.783   4.539   3.119  1.1247  0.6986  0.1643
  872SOL    HW2 2798   4.802   4.621   3.258  0.3557 -1.8170  1.8180
  873SOL     OW 2799   1.064   4.207   2.978  0.0458  0.2353  0.4057
  873SOL    HW1 2800   1.008   4.131   2.945 -0.7577  0.7702  0.5064
  873SOL    HW2 2801   1.080   4.271   2.903 -1.6992  1.4027  0.9494
  874SOL     OW 2802   4.611   2.823   3.691  0.3771  0.2967 -0.5135
  874SOL    HW1 2803   4.551   2.778   3.757  0.3145  0.4878 -0.4418
  874SOL    HW2 2804   4.589   2.920   3.687 -0.6922  0.0407 -1.9435
  875SOL     OW 2805   0.945   3.864   2.599 -0.0302 -0.4842  0.1845
  875SOL    HW1 2806   1.032   3.902   2.631  0.6407 -2.2102  0.5037
  875SOL    HW2 2807   0.961   3.810   2.517 -0.7046 -1.1857  0.4988
  876SOL     OW 2808   4.376   2.328   1.907  0.2201  0.1465  0.0419
  876SOL    HW1 2809   4.463   2.362   1.942 -0.9654  2.0733  1.3820
  876SOL    HW2 2810   4.324   2.287   1.982 -0.4474 -0.0035 -0.4897
  877SOL     OW 2811   1.682   3.897   3.919  0.0942  0.0107  0.1337
  877SOL    HW1 2812   1.728   3.836   3.854  0.3457 -0.3130  0.6126
  877SOL    HW2 2813   1.704   3.869   4.012  0.4906  1.0431  0.3658
  878SOL     OW 2814   2.813   4.394   1.160  0.0413  0.0864  0.4687
  878SOL    HW1 2815   2.789   4.490   1.175 -0.3798 -0.1735  1.5217
  878SOL    HW2 2816   2.853   4.385   1.069  0.9271  1.4118  0.6898
  879SOL     OW 2817   1.618   1.530   2.632 -0.0986  0.1895 -0.7151
  879SOL    HW1 2818   1.703   1.581   2.619 -0.0882  0.1459 -0.8210
  879SOL    HW2 2819   1.604   1.514   2.730 -0.1331  0.4469 -0.6767
  880SOL     OW 2820   2.413   1.648   2.513 -0.2417 -0.3240 -0.8439
  880SOL    HW1 2821   2.486   1.712   2.487 -0.5919  0.7953  0.7653
  880SOL    HW2 2822   2.444   1.554   2.497  0.3150  0.2010 -3.2177
  881SOL     OW 2823   4.665   2.700   3.202  0.1306  0.3774 -0.4366
  881SOL    HW1 2824   4.618   2.752   3.273  1.0061  1.2965 -0.5051
  881SOL    HW2 2825   4.615   2.709   3.116 -0.2429  0.3135 -0.2270
  882SOL     OW 2826   4.294   2.197   3.220  0.4175 -0.3855  0.4531
  882SOL    HW1 2827   4.368   2.248   3.177  0.5726 -1.2973 -0.3947
  882SOL    HW2 2828   4.207   2.228   3.184  0.4548 -0.1368  0.5726
  883SOL     OW 2829   3.902   2.907   2.217 -0.0248  0.2722 -0.2980
  883SOL    HW1 2830   3.844   2.849   2.274  1.3448  0.3483  1.2435
  883SOL    HW2 2831   3.864   3.000   2.215 -1.8134 -0.4151 -2.1766
  884SOL     OW 2832   3.489   2.806   1.795 -0.0305  0.6686 -0.5495
  884SOL    HW1 2833   3.585   2.785   1.813 -0.0044  0.1446 -1.2687
  884SOL    HW2 2834   3.447   2.730   1.746 -1.1439  0.3764  0.8078
  885SOL     OW 2835   4.990   3.271   4.045  0.1323 -0.1296  0.1284
  885SOL    HW1 2836   4.904   3.275   3.995  0.6675 -0.5084 -0.8377
  885SOL    HW2 2837   5.024   3.364   4.060 -1.3355  0.1458  2.1326
  886SOL     OW 2838   4.398   3.921   2.407  0.1521 -0.9581 -0.0025
  886SOL    HW1 2839   4.355   3.831   2.403  0.4750 -1.0522 -2.5153
  886SOL    HW2 2840   4.453   3.936   2.325  0.8891  1.1663  0.7979
  887SOL     OW 2841   1.621   3.222   4.209 -0.1005  0.1354 -0.1159
  887SOL    HW1 2842   1.529   3.218   4.248 -0.2219  1.0697 -0.2777
  887SOL    HW2 2843   1.684   3.171   4.267 -0.3795  1.0303  1.0195
  888SOL     OW 2844   4.272   3.945   1.636 -0.4178 -0.2399 -0.7287
  888SOL    HW1 2845   4.320   3.871   1.589 -1.2945  0.2866 -2.5431
  888SOL    HW2 2846   4.225   4.002   1.568 -0.8698  1.1943  0.7343
  889SOL     OW 2847   4.351   3.386   3.081  0.4146  0.2327 -0.3286
  889SOL    HW1 2848   4.354   3.486   3.072  1.5468  0.0789 -2.1472
  889SOL    HW2 2849   4.327   3.346   2.993  0.8963 -1.1296  0.1402
  890SOL     OW 2850   2.311   1.832   3.955  0.0183  0.1793  0.6677
  890SOL    HW1 2851   2.241   1.858   3.889  2.3488  3.6942 -0.7513
  890SOL    HW2 2852   2.331   1.735   3.946 -2.1007 -0.1600 -1.3672
  891SOL     OW 2853   3.153   5.655   2.677  0.3757  0.4854  0.1851
  891SOL    HW1 2854   3.115   5.738   2.635  0.0686 -0.2685 -1.0644
  891SOL    HW2 2855   3.147   5.579   2.612  0.6777 -0.5226  1.2969
  892SOL     OW 2856   2.020   1.829   2.739 -0.3559  0.4640  0.6818
  892SOL    HW1 2857   2.102   1.786   2.776 -0.3272 -0.1264 -0.0263
  892SOL    HW2 2858   2.037   1.856   2.644  0.3177  4.0037  1.6868
  893SOL     OW 2859   1.301   3.876   1.904 -0.1934  0.0919  0.2885
  893SOL    HW1 2860   1.346   3.787   1.894  1.6784  0.7481  2.1485
  893SOL    HW2 2861   1.203   3.862   1.919 -0.2688 -1.5114 -1.3392
  894SOL     OW 2862   2.566   2.725   2.145 -0.0541  0.3982 -0.3311
  894SOL    HW1 2863   2.550   2.697   2.240 -1.7827  0.2608 -0.6199
  894SOL    HW2 2864   2.663   2.717   2.124  0.4773  1.0452  1.6113
  895SOL     OW 2865   5.241   3.198   3.537 -0.4316 -0.3506  0.0461
  895SOL    HW1 2866   5.235   3.186   3.437  2.2040 -3.1291  0.0701
  895SOL    HW2 2867   5.151   3.180   3.577 -1.0810 -1.2348 -1.6806
  896SOL     OW 2868   4.260   3.966   3.441 -0.4661  0.4852 -0.0191
  896SOL    HW1 2869   4.294   3.952   3.534  0.3407  3.1562  0.1689
  896SOL    HW2 2870   4.260   3.878   3.392  1.9264 -0.4869  1.5627
  897SOL     OW 2871   1.928   1.215   2.380 -0.5428  0.2044  0.3410
  897SOL    HW1 2872   1.908   1.192   2.284 -1.0214 -2.2471  0.9540
  897SOL    HW2 2873   1.863   1.168   2.439  0.5571  0.6165  1.9415
  898SOL     OW 2874   3.364   3.436   1.518 -0.1536  0.1132 -0.1357
  898SOL    HW1 2875   3.376   3.360   1.583  0.0524  1.0860  1.0145
  898SOL    HW2 2876   3.354   3.521   1.570  2.6473  1.3246 -1.3636
  899SOL     OW 2877   3.427   2.228   1.667  0.2285  0.1363  0.1875
  899SOL    HW1 2878   3.470   2.150   1.713 -1.0459  0.4058  1.9356
  899SOL    HW2 2879   3.497   2.295   1.643  0.9837 -0.0248  1.7771
  900SOL     OW 2880   2.853   2.014   1.915 -0.3197 -0.0660 -0.4626
  900SOL    HW1 2881   2.946   2.026   1.882  0.3791 -1.0689  1.0299
  900SOL    HW2 2882   2.845   2.053   2.006 -1.6896  0.9930 -1.0014
  901SOL     OW 2883   3.246   2.444   1.737  0.3413  0.3587  0.1306
  901SOL    HW1 2884   3.288   2.355   1.720 -1.4458 -0.4665 -0.2582
  901SOL    HW2 2885   3.293   2.514   1.682  1.1084 -0.5165 -0.3590
  902SOL     OW 2886   1.674   2.747   2.845 -0.2788 -0.1111 -0.5684
  902SOL    HW1 2887   1.631   2.671   2.893  1.6577 -0.6175  0.4627
  902SOL    HW2 2888   1.606   2.820   2.831 -0.6778  0.9574  4.7219
  903SOL     OW 2889   2.249   1.247   3.184 -0.0452  0.3856 -0.5944
  903SOL    HW1 2890   2.262   1.149   3.199 -0.8330  0.6002  2.0059
  903SOL    HW2 2891   2.151   1.268   3.186  0.1426  1.3150 -0.4573
  904SOL     OW 2892   3.720   2.704   4.115  0.2772 -0.1879  0.4617
  904SOL    HW1 2893   3.731   2.683   4.018  2.0201 -4.2546  1.3294
  904SOL    HW2 2894   3.807   2.736   4.152 -0.4545  1.6432  0.7179
  905SOL     OW 2895   3.483   2.431   4.487 -0.3417  0.2018  0.2710
  905SOL    HW1 2896   3.446   2.409   4.397 -0.5653 -0.9984  0.6367
  905SOL    HW2 2897   3.449   2.521   4.516 -0.3699  0.5377 -0.7765
  906SOL     OW 2898   3.203   2.915   3.457  0.1096 -0.3889 -0.0298
  906SOL    HW1 2899   3.148   2.997   3.443 -0.3428 -0.1493  2.5853
  906SOL    HW2 2900   3.217   2.869   3.369  0.8827  2.7511 -1.7175
  907SOL     OW 2901   3.731   2.607   2.413 -0.4483 -0.7320 -0.0049
  907SOL    HW1 2902   3.811   2.548   2.414 -1.4180 -2.0980  1.2749
  907SOL    HW2 2903   3.756   2.697   2.448  0.7801 -0.7481 -0.8033
  908SOL     OW 2904   5.115   3.478   2.336  0.3801  0.1759  0.2293
  908SOL    HW1 2905   5.114   3.520   2.427  0.3335  0.2483  0.1950
  908SOL    HW2 2906   5.210   3.467   2.307  0.4722 -1.3421  0.9747
  909SOL     OW 2907   1.532   2.315   4.300 -0.0722 -0.5024 -0.0062
  909SOL    HW1 2908   1.521   2.377   4.377 -0.7981 -1.3995  0.6324
  909SOL    HW2 2909   1.482   2.351   4.221  0.7319  0.4523 -0.1033
  910SOL     OW 2910   4.320   4.204   3.120  0.2004 -0.3683 -0.6201
  910SOL    HW1 2911   4.334   4.191   3.022  0.8592  1.0269 -0.7387
  910SOL    HW2 2912   4.237   4.155   3.148 -0.6855  0.1939 -2.1146
  911SOL     OW 2913   3.781   3.879   2.564 -0.2490  0.2040 -0.0805
  911SOL    HW1 2914   3.763   3.840   2.655  2.6070  1.1378  1.0147
  911SOL    HW2 2915   3.743   3.972   2.561 -1.1176 -0.1485 -0.1764
  912SOL     OW 2916   2.137   1.248   3.890  0.1880  0.0673  0.2761
  912SOL    HW1 2917   2.214   1.189   3.914  0.4596 -0.5307 -1.8104
  912SOL    HW2 2918   2.168   1.343   3.883  0.7454 -0.1648 -0.4941
  913SOL     OW 2919   1.069   3.038   4.393  0.7016 -0.1442 -0.2023
  913SOL    HW1 2920   1.118   2.959   4.430  0.4130 -0.8641 -1.3090
  913SOL    HW2 2921   0.971   3.019   4.392  0.6933 -0.1365 -1.2677
  914SOL     OW 2922   2.695   1.777   2.693  0.1804 -0.1606 -0.1316
  914SOL    HW1 2923   2.774   1.836   2.709 -1.1996  1.8421 -0.4013
  914SOL    HW2 2924   2.679   1.769   2.594 -0.6741  0.4398 -0.0433
  915SOL     OW 2925   3.989   0.013   2.579  0.2634 -0.1227 -0.2049
  915SOL    HW1 2926   4.083   0.034   2.604  0.5197  0.4853 -1.6095
  915SOL    HW2 2927   3.939  -0.015   2.661  1.1950  1.2306  0.8652
  916SOL     OW 2928   3.383   3.000   1.553  0.5477 -0.3553  0.1174
  916SOL    HW1 2929   3.447   2.955   1.615 -0.5133 -0.5155  1.1293
  916SOL    HW2 2930   3.315   2.933   1.522  0.8692 -0.1993 -0.9760
  917SOL     OW 2931   2.403   1.208   2.020 -0.5997 -0.2483  0.1143
  917SOL    HW1 2932   2.377   1.249   1.932 -1.3672 -1.8669 -0.4606
  917SOL    HW2 2933   2.412   1.280   2.088  2.3602  1.3747 -1.7696
  918SOL     OW 2934   4.373   5.496   2.948 -0.2249 -0.0516 -0.3977
  918SOL    HW1 2935   4.416   5.549   3.021  0.2130 -2.7940  1.4846
  918SOL    HW2 2936   4.330   5.559   2.882  1.3505  2.5920  0.9363
  919SOL     OW 2937   3.354   0.205   2.252  0.0935 -0.0550 -0.1092
  919SOL    HW1 2938   3.278   0.268   2.269  0.1568 -0.0134  0.0177
  919SOL    HW2 2939   3.332   0.149   2.172  0.1562  0.3234 -0.3980
  920SOL     OW 2940   4.963   3.370   1.986  0.3642 -0.2145 -0.3083
  920SOL    HW1 2941   5.061   3.371   2.007 -0.2141 -1.3087  3.0871
  920SOL    HW2 2942   4.918   3.303   2.045 -2.7063  1.5592 -0.4308
  921SOL     OW 2943   2.980   3.989   1.359 -0.0225 -0.1039 -0.4484
  921SOL    HW1 2944   2.881   3.989   1.366 -0.0240 -1.4248 -0.3566
  921SOL    HW2 2945   3.012   4.084   1.348 -1.2547  0.3583 -0.1750
  922SOL     OW 2946   1.713   3.785   1.550 -0.5047 -0.1933  0.1591
  922SOL    HW1 2947   1.639   3.845   1.580  0.6656  0.8152  1.1653
  922SOL    HW2 2948   1.741   3.811   1.458 -0.5394  0.2796  0.2805
  923SOL     OW 2949   3.293   2.940   4.261 -0.0190  0.8542 -0.0624
  923SOL    HW1 2950   3.257   2.891   4.341  3.2755 -1.2374  0.3553
  923SOL    HW2 2951   3.289   2.880   4.181 -0.0404  1.6062 -0.6395
  924SOL     OW 2952   0.766   2.235   3.649  0.1293 -0.2175  0.5086
  924SOL    HW1 2953   0.704   2.162   3.619  0.8426 -0.6881  0.1709
  924SOL    HW2 2954   0.711   2.311   3.685 -0.7280  0.1086 -1.3595
  925SOL     OW 2955   4.558   3.205   1.456  0.2717 -0.1603  0.5586
  925SOL    HW1 2956   4.476   3.147   1.457  1.5467 -2.0873  2.7032
  925SOL    HW2 2957   4.531   3.299   1.478 -1.4030 -0.6900  0.9555
  926SOL     OW 2958   0.146   2.758   3.690 -1.0695 -0.2367 -0.6705
  926SOL    HW1 2959   0.188   2.754   3.781  1.6769  1.0638 -1.7732
  926SOL    HW2 2960   0.065   2.700   3.689  1.0523 -3.5944  1.4559
  927SOL     OW 2961   0.135   2.930   3.173 -0.3822 -0.3379  0.7729
  927SOL    HW1 2962   0.233   2.933   3.149 -0.6260  3.7035 -0.6020
  927SOL    HW2 2963   0.126   2.930   3.272  1.0937  0.6521  0.9526
  928SOL     OW 2964   2.600   3.667   5.276 -0.2870  0.2627 -0.5659
  928SOL    HW1 2965   2.647   3.721   5.206 -1.7130  0.8066 -1.1439
  928SOL    HW2 2966   2.656   3.666   5.359 -0.1911  2.6700 -0.5165
  929SOL     OW 2967   5.078   2.341   3.736  0.0847  0.1932 -0.0018
  929SOL    HW1 2968   4.981   2.344   3.714 -0.0768 -0.2133  0.6044
  929SOL    HW2 2969   5.127   2.408   3.681 -0.3862 -0.3199 -1.0647
  930SOL     OW 2970   2.841   3.097   0.116  0.3232 -0.4599  0.0746
  930SOL    HW1 2971   2.936   3.096   0.087  0.4615  1.9756  0.2101
  930SOL    HW2 2972   2.826   3.026   0.184  1.6966 -1.7110 -0.8568
  931SOL     OW 2973   2.396   1.496   3.231  0.0372 -0.1653 -0.1837
  931SOL    HW1 2974   2.321   1.430   3.243 -1.3142  1.0977 -1.2986
  931SOL    HW2 2975   2.468   1.476   3.297 -1.4122 -1.2493  1.1504
  932SOL     OW 2976   2.588   0.242   2.629 -0.3526 -0.2317  0.2184
  932SOL    HW1 2977   2.578   0.163   2.568 -1.5487  0.8971 -1.1296
  932SOL    HW2 2978   2.515   0.308   2.609  0.8251  1.3886  1.0430
  933SOL     OW 2979   2.711   3.866   4.208  0.1321 -0.5410  0.1972
  933SOL    HW1 2980   2.768   3.948   4.202  1.8641 -1.5776  1.4865
  933SOL    HW2 2981   2.685   3.836   4.116  1.8474 -0.1179 -0.4532
  934SOL     OW 2982   2.952   1.662   3.051  0.1710  0.1567 -0.3468
  934SOL    HW1 2983   2.923   1.597   2.980 -1.3924  1.1535 -0.6666
  934SOL    HW2 2984   2.873   1.688   3.105  1.0766  0.6077  0.7934
  935SOL     OW 2985   5.245   3.698   3.438 -0.0644 -0.4726 -0.4796
  935SOL    HW1 2986   5.322   3.712   3.375 -0.1442  0.1008 -0.4495
  935SOL    HW2 2987   5.280   3.683   3.530  0.0357 -0.8717 -0.5807
  936SOL     OW 2988   4.823   3.384   4.328  0.2043 -0.4766  0.4875
  936SOL    HW1 2989   4.756   3.385   4.253  0.6618  0.0879  0.0687
  936SOL    HW2 2990   4.862   3.292   4.336 -0.8527 -0.8967  0.9562
  937SOL     OW 2991   4.497   3.351   4.637 -0.1311  0.0827  0.2655
  937SOL    HW1 2992   4.486   3.312   4.728  1.2255 -2.4241 -0.5495
  937SOL    HW2 2993   4.594   3.370   4.621  0.0870 -2.0582 -1.5173
  938SOL     OW 2994   3.065   3.369   5.237  0.1626 -0.3766  0.1748
  938SOL    HW1 2995   3.040   3.274   5.219 -2.0318  0.4813 -1.8786
  938SOL    HW2 2996   3.045   3.390   5.333 -0.8010 -1.5848  0.2744
  939SOL     OW 2997   4.442   3.016   4.063 -0.4302  0.5695 -0.1068
  939SOL    HW1 2998   4.450   3.026   4.162  0.4846 -0.2127 -0.0828
  939SOL    HW2 2999   4.362   2.960   4.041 -1.1574  1.4932  0.1297
  940SOL     OW 3000   4.277   1.963   2.282  0.3917  0.0205 -0.0866
  940SOL    HW1 3001   4.340   2.010   2.345  0.9645 -0.8151 -0.0220
  940SOL    HW2 3002   4.184   1.974   2.316  0.5224  1.0288 -0.0211
  941SOL     OW 3003   2.152   4.368   1.531  0.1989  0.3980  0.5190
  941SOL    HW1 3004   2.096   4.411   1.461 -0.3853 -0.8234  0.2226
  941SOL    HW2 3005   2.100   4.361   1.616  0.2091  0.0563  0.4981
  942SOL     OW 3006   2.135   3.552   2.159 -0.4867 -0.0792 -0.7229
  942SOL    HW1 3007   2.160   3.638   2.114 -0.2561  0.0601 -0.3343
  942SOL    HW2 3008   2.106   3.486   2.090 -0.4583  0.2414 -1.0438
  943SOL     OW 3009   2.972   2.288   1.560  0.0435 -0.2623  0.1354
  943SOL    HW1 3010   2.893   2.323   1.511 -0.4740 -0.6251  0.7022
  943SOL    HW2 3011   2.993   2.349   1.636  0.6531  0.1295 -0.3336
  944SOL     OW 3012   2.307   4.447   2.820 -0.4670  0.4936 -0.3210
  944SOL    HW1 3013   2.257   4.441   2.907 -0.2610 -0.4615 -0.2563
  944SOL    HW2 3014   2.346   4.539   2.811  2.2402 -0.2552  2.1340
  945SOL     OW 3015   4.545   3.300   3.525  0.8034 -0.0380 -0.1374
  945SOL    HW1 3016   4.626   3.293   3.467  0.9741  1.3610 -0.1118
  945SOL    HW2 3017   4.483   3.370   3.487  0.0385 -0.4365  0.3400
  946SOL     OW 3018   5.349   3.677   3.686 -0.1367 -0.1519  0.3898
  946SOL    HW1 3019   5.438   3.723   3.686 -0.1349  0.0689 -2.8823
  946SOL    HW2 3020   5.363   3.578   3.681 -0.0845 -0.1646  0.7854
  947SOL     OW 3021   2.684   3.915   3.192 -0.5998 -0.0168  0.1110
  947SOL    HW1 3022   2.590   3.910   3.160 -0.8892 -0.2490  0.9842
  947SOL    HW2 3023   2.687   3.895   3.290  0.4080 -0.4273  0.0070
  948SOL     OW 3024   4.292   1.934   3.321 -0.4818  0.7818  0.0666
  948SOL    HW1 3025   4.299   2.032   3.300 -0.1012  0.8825  0.6587
  948SOL    HW2 3026   4.311   1.919   3.418 -1.0055  0.1706  0.0820
  949SOL     OW 3027   1.603   2.658   3.816 -1.2427 -0.3412  0.0999
  949SOL    HW1 3028   1.675   2.641   3.884 -0.6027 -1.2457 -0.7729
  949SOL    HW2 3029   1.639   2.716   3.743 -1.4878 -0.5377 -0.1811
  950SOL     OW 3030   5.713   3.375   4.260  0.1216  0.1616 -0.1666
  950SOL    HW1 3031   5.667   3.388   4.172 -0.3919 -1.0015 -0.0932
  950SOL    HW2 3032   5.670   3.299   4.309  0.3261  0.8663  1.1489
  951SOL     OW 3033   3.033   0.380   2.593 -0.5685 -0.0540  0.6789
  951SOL    HW1 3034   2.937   0.372   2.623 -0.3788 -0.1793  1.2629
  951SOL    HW2 3035   3.093   0.353   2.668 -0.0468  1.0293  0.6724
  952SOL     OW 3036   3.263   3.533   2.173 -0.4755  0.5944 -0.4106
  952SOL    HW1 3037   3.166   3.517   2.188 -0.2062 -0.1234  0.6463
  952SOL    HW2 3038   3.292   3.487   2.089 -1.0382  0.8232 -0.7338
  953SOL     OW 3039   5.418   3.123   2.896 -0.4866 -0.0810  0.0682
  953SOL    HW1 3040   5.369   3.138   2.982  0.2528 -0.4501  0.5588
  953SOL    HW2 3041   5.500   3.180   2.894 -0.4133 -0.1955 -0.3311
  954SOL     OW 3042   2.463   3.645   4.238  0.2722 -0.0956 -0.0139
  954SOL    HW1 3043   2.452   3.717   4.306  0.0112 -1.2195  1.1954
  954SOL    HW2 3044   2.383   3.585   4.241  1.0983 -1.2389  0.0334
  955SOL     OW 3045   3.195   2.804   1.492  0.5895  0.4867 -0.0042
  955SOL    HW1 3046   3.185   2.808   1.393  1.0881 -0.7403 -0.1293
  955SOL    HW2 3047   3.105   2.799   1.535  0.3828 -1.1231 -0.5443
  956SOL     OW 3048   2.994   0.668   3.094 -0.6444  0.0752 -0.4659
  956SOL    HW1 3049   3.070   0.630   3.147 -1.0073  2.3276  1.8978
  956SOL    HW2 3050   2.932   0.595   3.068  0.5845 -1.3828  0.5203
  957SOL     OW 3051   3.183   1.906   4.355  0.4905  0.7242 -0.4132
  957SOL    HW1 3052   3.176   1.831   4.420 -2.5350 -0.7121 -2.1869
  957SOL    HW2 3053   3.100   1.962   4.361  0.7608  1.3490 -2.0483
  958SOL     OW 3054   5.767   3.196   3.628  0.3246 -0.1455 -0.5069
  958SOL    HW1 3055   5.762   3.128   3.555 -0.4577 -2.3840  1.4856
  958SOL    HW2 3056   5.856   3.190   3.673  0.3359  0.3101 -0.4626
  959SOL     OW 3057   1.855   4.866   2.258  0.4473 -1.2999  0.3314
  959SOL    HW1 3058   1.849   4.785   2.199 -1.8394 -1.0749  0.1838
  959SOL    HW2 3059   1.801   4.850   2.341  1.7242 -0.7173  1.3061
  960SOL     OW 3060   2.376   2.839   1.976  0.3954  0.3789  0.1846
  960SOL    HW1 3061   2.287   2.793   1.972  0.7147 -0.1823 -0.4085
  960SOL    HW2 3062   2.434   2.792   2.042  0.6664  0.0313 -0.3041
  961SOL     OW 3063   5.305   3.411   4.107 -0.3856 -0.1872 -0.2444
  961SOL    HW1 3064   5.319   3.378   4.014  0.6408 -0.7540  0.0925
  961SOL    HW2 3065   5.227   3.473   4.109 -1.5111 -1.5153 -1.1614
  962SOL     OW 3066   4.059   2.631   1.771  0.4430 -0.6653  0.6603
  962SOL    HW1 3067   4.078   2.657   1.865 -0.7886  0.4054  0.6406
  962SOL    HW2 3068   4.013   2.706   1.724 -0.2659 -1.6954 -0.3686
  963SOL     OW 3069   2.513   2.174   2.693  0.2313 -0.2308  0.4598
  963SOL    HW1 3070   2.453   2.130   2.760 -1.6509  1.7769  0.2019
  963SOL    HW2 3071   2.531   2.110   2.618 -0.7326 -1.2456  1.0630
  964SOL     OW 3072   0.768   2.624   2.911  0.2538 -0.3114  0.3649
  964SOL    HW1 3073   0.823   2.665   2.984  0.3786 -1.0850  0.7125
  964SOL    HW2 3074   0.711   2.551   2.949 -0.8389  0.3079 -0.0401
  965SOL     OW 3075   3.039   3.824   1.818  0.3427 -0.6327 -0.3614
  965SOL    HW1 3076   2.943   3.845   1.800  0.7433  2.7422  0.8105
  965SOL    HW2 3077   3.094   3.853   1.740  0.4710 -2.6514 -1.0739
  966SOL     OW 3078   4.195   3.520   2.238  0.6450 -0.0892  0.7349
  966SOL    HW1 3079   4.143   3.453   2.291 -0.7553 -1.4520 -2.1264
  966SOL    HW2 3080   4.196   3.492   2.142  2.6389  2.4633 -0.1037
  967SOL     OW 3081   3.753   3.250   4.403  0.2361 -0.2439  0.1917
  967SOL    HW1 3082   3.802   3.198   4.473  0.3002 -0.3324  0.0830
  967SOL    HW2 3083   3.683   3.191   4.361 -0.1596 -0.0271  0.5466
  968SOL     OW 3084   2.097   1.582   3.722 -0.5002 -0.1297  0.2461
  968SOL    HW1 3085   2.018   1.523   3.739 -0.3435  0.0131  1.6040
  968SOL    HW2 3086   2.156   1.582   3.803  0.5767  0.2649 -0.5084
  969SOL     OW 3087   1.894   2.897   2.872 -0.6564 -0.2215 -0.2441
  969SOL    HW1 3088   1.812   2.841   2.878 -0.4420 -0.6873 -1.4379
  969SOL    HW2 3089   1.915   2.935   2.962 -3.2783  1.5046 -0.2759
  970SOL     OW 3090   2.373   1.400   2.206 -0.2502  0.4976  0.0665
  970SOL    HW1 3091   2.304   1.332   2.229  0.0723 -0.4376 -1.5231
  970SOL    HW2 3092   2.443   1.402   2.277 -0.6749 -0.2684  0.5152
  971SOL     OW 3093   4.360   4.076   2.872  0.0816 -0.1757  0.5251
  971SOL    HW1 3094   4.419   3.994   2.869  1.5445  0.8474 -2.1880
  971SOL    HW2 3095   4.272   4.054   2.830 -0.2823 -0.8222  1.5711
  972SOL     OW 3096   2.715   2.157   1.531 -0.2146 -0.1996 -0.3642
  972SOL    HW1 3097   2.812   2.180   1.537 -0.3607  0.3019  0.2540
  972SOL    HW2 3098   2.694   2.123   1.439  0.2403  1.2140 -1.0279
  973SOL     OW 3099   1.849   3.412   1.586  0.0126  0.0158  0.2493
  973SOL    HW1 3100   1.768   3.423   1.528  1.2871 -0.9713 -1.8411
  973SOL    HW2 3101   1.820   3.402   1.681 -2.1931  1.3161 -0.2160
  974SOL     OW 3102   3.190   2.744   4.445  0.1620 -0.3464  0.6123
  974SOL    HW1 3103   3.105   2.794   4.429 -0.5420 -0.5684  3.2802
  974SOL    HW2 3104   3.188   2.658   4.393 -0.7611  0.1335 -0.1676
  975SOL     OW 3105   3.206   1.723   3.106  0.2192  0.4290 -0.4320
  975SOL    HW1 3106   3.117   1.681   3.091 -0.7355  1.9688  0.6327
  975SOL    HW2 3107   3.195   1.821   3.120  1.8201  0.3917  1.8133
  976SOL     OW 3108   4.751   2.942   4.115 -0.0412 -0.5610 -0.3164
  976SOL    HW1 3109   4.803   2.998   4.179  1.6965 -0.8634 -1.3890
  976SOL    HW2 3110   4.701   3.002   4.052  0.1996 -0.2341 -0.1986
  977SOL     OW 3111   3.647   0.093   2.613 -0.0659  0.5882 -0.0263
  977SOL    HW1 3112   3.582   0.159   2.574  2.3763  2.8886 -0.4572
  977SOL    HW2 3113   3.685   0.037   2.540  1.4067  2.0394 -0.4087
  978SOL     OW 3114   4.439   3.644   2.256  0.4726 -0.0637  0.2967
  978SOL    HW1 3115   4.452   3.706   2.179 -0.3089 -0.2818 -0.0165
  978SOL    HW2 3116   4.347   3.607   2.254 -0.3102  1.5270  2.4990
  979SOL     OW 3117   2.890   1.992   4.263 -0.0286 -0.1374 -0.1011
  979SOL    HW1 3118   2.861   1.996   4.167 -1.2839 -1.2056  0.2182
  979SOL    HW2 3119   2.810   1.988   4.322  0.7392 -0.0877  0.9676
  980SOL     OW 3120   1.439   4.222   3.067  0.6719 -0.1568  0.2672
  980SOL    HW1 3121   1.406   4.127   3.070 -0.2868  0.1848  1.3804
  980SOL    HW2 3122   1.391   4.270   2.994 -1.3147  0.2927  1.7733
  981SOL     OW 3123   0.443   3.710   3.118 -0.3755 -0.1974  0.2887
  981SOL    HW1 3124   0.473   3.756   3.035  1.1302 -0.3311  0.7264
  981SOL    HW2 3125   0.471   3.614   3.116 -1.3078 -0.4910  0.4773
  982SOL     OW 3126   3.482   4.998   2.609  0.5929  0.1739 -0.5232
  982SOL    HW1 3127   3.486   4.904   2.645  1.3176 -0.4513 -2.1457
  982SOL    HW2 3128   3.571   5.042   2.620  1.0373 -0.2657 -2.0790
  983SOL     OW 3129   4.367   1.903   3.581  0.0335  0.4450  0.1424
  983SOL    HW1 3130   4.311   1.963   3.638  1.1416  2.3054 -0.6575
  983SOL    HW2 3131   4.376   1.814   3.626 -0.2256  1.4080  2.1977
  984SOL     OW 3132   3.347   5.662   1.722 -0.4744 -0.5632  0.4798
  984SOL    HW1 3133   3.426   5.602   1.736 -0.4978 -0.3130  1.8282
  984SOL    HW2 3134   3.282   5.649   1.798 -0.9676  0.4085  0.2399
  985SOL     OW 3135   4.891   3.550   2.193 -0.2047  0.1989 -0.3440
  985SOL    HW1 3136   4.879   3.498   2.108  0.3686  0.5864 -0.6672
  985SOL    HW2 3137   4.982   3.532   2.230 -1.0565 -1.3516  1.1545
  986SOL     OW 3138   2.800   0.514   2.990  0.3408  0.4118 -0.3170
  986SOL    HW1 3139   2.804   0.472   2.899 -1.8377  1.4551 -0.9515
  986SOL    HW2 3140   2.730   0.468   3.044  1.9767 -0.5516  1.0921
  987SOL     OW 3141   2.744   3.283   1.944 -0.6873  0.7038 -0.4537
  987SOL    HW1 3142   2.665   3.320   1.994 -0.7912 -2.4343  1.9849
  987SOL    HW2 3143   2.737   3.184   1.940  2.0908  0.4653 -2.1800
  988SOL     OW 3144   4.616   3.879   3.480  0.0242  0.1725 -0.2342
  988SOL    HW1 3145   4.662   3.965   3.457  4.1483 -1.3556  1.2403
  988SOL    HW2 3146   4.566   3.891   3.566  0.7838  1.0979  0.1034
  989SOL     OW 3147   2.173   1.660   2.377  0.4598 -0.1885 -0.4583
  989SOL    HW1 3148   2.115   1.580   2.394 -0.9852  0.9207 -0.0480
  989SOL    HW2 3149   2.260   1.649   2.426 -0.7564 -0.3244  1.7693
  990SOL     OW 3150   5.675   2.334   3.701  0.1235  0.5080  0.1825
  990SOL    HW1 3151   5.651   2.293   3.612  0.6734  2.6150 -1.0022
  990SOL    HW2 3152   5.765   2.300   3.729 -1.3710 -2.6759  1.6302
  991SOL     OW 3153   3.911   3.838   2.879  0.0891 -0.1186  0.5248
  991SOL    HW1 3154   3.832   3.873   2.930  0.3446  0.1320  0.7579
  991SOL    HW2 3155   3.900   3.740   2.865 -0.1826 -0.1165  0.7064
  992SOL     OW 3156   1.685   4.037   4.370  0.1278  0.2261  0.4720
  992SOL    HW1 3157   1.657   4.101   4.298 -1.8345 -0.5888  0.4468
  992SOL    HW2 3158   1.619   4.041   4.445  0.0312 -1.6359  0.5295
  993SOL     OW 3159   4.146   5.343   3.077  0.4992  0.2921 -0.1015
  993SOL    HW1 3160   4.196   5.266   3.118  0.5482 -0.7398 -1.9953
  993SOL    HW2 3161   4.213   5.407   3.038  0.4335  0.9271  0.8068
  994SOL     OW 3162   2.888   1.094   3.018  0.1576 -0.0403  0.5975
  994SOL    HW1 3163   2.830   1.169   3.051  1.8336  1.1884  0.8682
  994SOL    HW2 3164   2.896   1.100   2.919 -1.7133 -1.3930  0.3220
  995SOL     OW 3165   1.510   4.084   3.410  0.5446  0.9069  0.1206
  995SOL    HW1 3166   1.491   4.003   3.464 -0.2055  0.5181 -0.6905
  995SOL    HW2 3167   1.536   4.159   3.471 -0.2089  0.4669  1.0164
  996SOL     OW 3168   1.354   2.586   3.204 -0.5745  0.3261 -0.0880
  996SOL    HW1 3169   1.388   2.665   3.256 -1.1526  0.0570  0.7067
  996SOL    HW2 3170   1.422   2.562   3.134 -0.1157  1.1441  0.0555
  997SOL     OW 3171   2.248   4.489   3.368 -0.2426  0.5627  0.2216
  997SOL    HW1 3172   2.343   4.511   3.345  0.5298 -2.3881  0.1602
  997SOL    HW2 3173   2.247   4.408   3.427 -2.7404  0.3279 -0.0504
  998SOL     OW 3174   5.711   2.584   3.684  0.7029  0.3903 -0.2716
  998SOL    HW1 3175   5.625   2.620   3.650  1.1558  1.0150 -0.7644
  998SOL    HW2 3176   5.700   2.486   3.704 -1.0367  1.0833  2.7429
  999SOL     OW 3177   3.756   3.341   3.494  0.2083  0.0146 -0.3188
  999SOL    HW1 3178   3.717   3.252   3.517 -1.0463  0.6774  0.1582
  999SOL    HW2 3179   3.689   3.395   3.444  0.0723  1.5777  1.4343
 1000SOL     OW 3180   3.189   1.361   2.298  0.2473 -0.2665  0.1718
 1000SOL    HW1 3181   3.263   1.410   2.343  2.0554 -2.0828 -0.6744
 1000SOL    HW2 3182   3.153   1.416   2.223 -0.1382  1.1431  1.3542
 1001SOL     OW 3183   2.809   2.715   0.994  0.3701  0.4362  0.0307
 1001SOL    HW1 3184   2.835   2.731   0.899  0.0679 -0.7551 -0.2726
 1001SOL    HW2 3185   2.824   2.798   1.047  0.1817  1.2346 -1.1391
 1002SOL     OW 3186   2.637   1.546   2.000 -0.2778 -0.2580  0.2370
 1002SOL    HW1 3187   2.698   1.621   1.977 -0.3719  0.1007  1.0932
 1002SOL    HW2 3188   2.542   1.579   2.002 -0.2183 -0.0961  1.7235
 1003SOL     OW 3189   2.560   1.433   3.446 -0.1050 -0.0941  0.3423
 1003SOL    HW1 3190   2.584   1.341   3.415  1.2606  0.3431  0.0370
 1003SOL    HW2 3191   2.511   1.426   3.533 -0.4482 -1.1249  0.0882
 1004SOL     OW 3192   3.985   5.099   2.701 -0.1446 -0.0140  0.0756
 1004SOL    HW1 3193   3.995   5.186   2.748  0.7228 -0.1794  0.2192
 1004SOL    HW2 3194   4.074   5.052   2.699 -1.2433 -2.6806  3.5370
 1005SOL     OW 3195   3.794   1.005   3.314  0.0238  0.2831  0.0040
 1005SOL    HW1 3196   3.808   0.964   3.404 -0.7969 -0.6194 -0.2594
 1005SOL    HW2 3197   3.697   1.028   3.303  0.4933  2.6262  0.2522
 1006SOL     OW 3198   4.501   3.243   2.268  0.5943 -0.0531 -0.3854
 1006SOL    HW1 3199   4.452   3.280   2.347  1.0709  1.0004 -0.5682
 1006SOL    HW2 3200   4.536   3.152   2.291 -0.8793 -0.5721 -0.0330
 1007SOL     OW 3201   3.949   5.581   2.157  0.7996 -0.1237  0.1893
 1007SOL    HW1 3202   3.943   5.575   2.257 -1.1178 -1.4428  0.0622
 1007SOL    HW2 3203   4.019   5.517   2.125  1.5676  0.4535  0.6756
 1008SOL     OW 3204   1.324   3.208   3.644  0.6330  0.0201 -0.5622
 1008SOL    HW1 3205   1.379   3.207   3.728 -1.6359  2.1108  1.0865
 1008SOL    HW2 3206   1.347   3.291   3.592 -1.3848  1.4000  0.5861
 1009SOL     OW 3207   3.726   2.233   2.608 -0.9978 -0.3226 -0.2240
 1009SOL    HW1 3208   3.737   2.204   2.703 -0.9533  0.4925  0.0342
 1009SOL    HW2 3209   3.712   2.153   2.550 -0.6286 -0.8605  0.4133
 1010SOL     OW 3210   2.113   2.329   4.432 -0.1350  0.1304  0.0390
 1010SOL    HW1 3211   2.054   2.323   4.351  1.1102 -0.8574 -0.8296
 1010SOL    HW2 3212   2.204   2.360   4.405 -0.1246  1.3563  1.3216
 1011SOL     OW 3213   3.475   4.499   1.511 -0.3715 -0.5572  0.1665
 1011SOL    HW1 3214   3.549   4.517   1.576  2.2520  0.5525 -2.8825
 1011SOL    HW2 3215   3.444   4.585   1.472 -1.5488 -1.2302 -0.4094
 1012SOL     OW 3216   1.729   2.609   4.039  0.4611  0.5320 -0.1188
 1012SOL    HW1 3217   1.692   2.665   4.113  0.2785 -0.0213  0.2171
 1012SOL    HW2 3218   1.769   2.526   4.078 -1.9170 -1.0279 -0.7951
 1013SOL     OW 3219   3.321   4.284   1.582 -0.0006 -0.4390 -0.3616
 1013SOL    HW1 3220   3.362   4.226   1.652  0.1355  2.1348  1.8529
 1013SOL    HW2 3221   3.388   4.351   1.551 -0.6135 -0.3744 -1.5866
 1014SOL     OW 3222   3.244   1.942   2.023 -0.5527 -0.2997 -0.5912
 1014SOL    HW1 3223   3.187   2.011   1.979  0.1167  0.3639 -0.4220
 1014SOL    HW2 3224   3.339   1.972   2.023 -0.3803 -0.8073  0.2999
 1015SOL     OW 3225   4.789   3.230   2.145 -0.1811  0.4928 -0.4193
 1015SOL    HW1 3226   4.760   3.150   2.092  1.5119  0.8403 -1.9667
 1015SOL    HW2 3227   4.709   3.288   2.162 -0.8196  0.3662 -2.6240
 1016SOL     OW 3228   0.211   3.263   3.825  0.4094  0.6886  0.0013
 1016SOL    HW1 3229   0.249   3.319   3.751 -1.4021  1.2604 -0.5319
 1016SOL    HW2 3230   0.151   3.319   3.882 -0.6631 -0.4747  0.0543
 1017SOL     OW 3231   4.679   4.287   2.847 -0.6629  0.8111 -0.4685
 1017SOL    HW1 3232   4.608   4.308   2.780 -1.3166  1.6324  0.4286
 1017SOL    HW2 3233   4.675   4.190   2.872 -0.1316  0.4056 -1.8946
 1018SOL     OW 3234   1.986   2.665   3.124  0.1344  0.6952 -0.0402
 1018SOL    HW1 3235   2.019   2.728   3.054  0.2346  0.8702  0.1632
 1018SOL    HW2 3236   2.025   2.575   3.109 -1.6794  0.1102 -1.6259
 1019SOL     OW 3237   2.145   5.394   2.744 -0.7336 -0.5660  0.3045
 1019SOL    HW1 3238   2.127   5.317   2.683 -0.1148  0.5967 -1.4034
 1019SOL    HW2 3239   2.071   5.460   2.736  0.3757  0.5912 -0.8619
 1020SOL     OW 3240   1.859   3.554   2.309 -0.0995 -0.6203 -0.1816
 1020SOL    HW1 3241   1.797   3.614   2.258 -2.9528 -0.7373  2.7434
 1020SOL    HW2 3242   1.951   3.563   2.273 -1.6365  0.0506 -4.4672
 1021SOL     OW 3243   3.646   4.184   3.460  0.2992  0.1874 -0.3556
 1021SOL    HW1 3244   3.736   4.156   3.493 -0.3341 -2.6994 -0.7322
 1021SOL    HW2 3245   3.576   4.128   3.506 -1.3428  2.3288 -0.0877
 1022SOL     OW 3246   3.691   2.901   2.458  0.6594  0.0406 -0.0008
 1022SOL    HW1 3247   3.618   2.837   2.484  0.5870  0.5423  1.0888
 1022SOL    HW2 3248   3.649   2.983   2.418  0.7681 -0.7061 -1.7075
 1023SOL     OW 3249   4.526   3.652   1.964  0.2666 -0.4390  0.1713
 1023SOL    HW1 3250   4.461   3.728   1.967  1.6664  0.8558 -0.9351
 1023SOL    HW2 3251   4.594   3.670   1.893  1.3042 -2.1938  0.6758
 1024SOL     OW 3252   5.679   3.566   3.274  0.4634 -0.5783 -0.0741
 1024SOL    HW1 3253   5.674   3.507   3.354  1.3336 -0.3247  0.1780
 1024SOL    HW2 3254   5.706   3.512   3.195 -2.9634 -1.4033 -0.8593
 1025SOL     OW 3255   4.326   0.275   2.754 -0.3982  0.8962  0.7687
 1025SOL    HW1 3256   4.344   0.367   2.721 -1.1005  0.1050 -2.1275
 1025SOL    HW2 3257   4.228   0.265   2.774 -0.8891  0.0937 -1.6830
 1026SOL     OW 3258   2.889   0.601   2.026  0.5569 -0.0353 -0.3366
 1026SOL    HW1 3259   2.965   0.567   1.969  1.9658 -0.5773  1.7231
 1026SOL    HW2 3260   2.829   0.524   2.049  2.1038 -0.7065  1.8891
 1027SOL     OW 3261   2.019   2.813   4.670 -0.5655 -0.4069  0.3635
 1027SOL    HW1 3262   1.960   2.802   4.751 -1.3356  0.0893 -0.1164
 1027SOL    HW2 3263   1.995   2.743   4.603 -0.9016  0.0537 -0.0015
 1028SOL     OW 3264   3.229   0.536   3.166  0.1718 -0.0366 -0.3825
 1028SOL    HW1 3265   3.280   0.533   3.251  0.5994 -1.1132 -0.6635
 1028SOL    HW2 3266   3.286   0.577   3.095  0.1880 -0.0866 -0.3982
 1029SOL     OW 3267   3.835   3.648   4.166  0.1623  0.3202  0.4542
 1029SOL    HW1 3268   3.860   3.744   4.149  3.4077 -0.7685 -2.1193
 1029SOL    HW2 3269   3.779   3.615   4.090 -0.4023 -0.0031  1.0054
 1030SOL     OW 3270   3.321   2.394   4.254  0.0592  0.2730  0.3244
 1030SOL    HW1 3271   3.372   2.452   4.190  0.0762 -0.1924 -0.0864
 1030SOL    HW2 3272   3.313   2.302   4.216 -1.1470  0.3521  0.3339
 1031SOL     OW 3273   1.967   3.744   4.158  0.5757 -0.1532 -0.9098
 1031SOL    HW1 3274   2.014   3.807   4.219 -2.4797  1.9617 -0.4522
 1031SOL    HW2 3275   1.959   3.654   4.201  1.1995  0.4157  0.4339
 1032SOL     OW 3276   5.147   4.180   3.184 -0.4126 -0.7950  0.9822
 1032SOL    HW1 3277   5.114   4.228   3.265  0.3952 -0.3401  1.0580
 1032SOL    HW2 3278   5.129   4.235   3.103 -0.1472 -0.6987  0.9876
 1033SOL     OW 3279   3.079   0.017   3.093 -0.6269 -0.6801 -0.5630
 1033SOL    HW1 3280   2.986  -0.003   3.122 -0.4273 -0.2418  0.4747
 1033SOL    HW2 3281   3.111   0.098   3.143  0.2830 -0.7913 -0.9492
 1034SOL     OW 3282   2.898   4.862   1.605  0.1550  0.4011 -0.0062
 1034SOL    HW1 3283   2.864   4.781   1.653  0.5490  0.6337  0.6957
 1034SOL    HW2 3284   2.873   4.857   1.509  2.4330 -1.8492 -0.5678
 1035SOL     OW 3285   2.771   0.970   3.633 -0.0442 -0.8464 -0.3625
 1035SOL    HW1 3286   2.853   1.015   3.669 -1.5845 -0.5923  3.2432
 1035SOL    HW2 3287   2.786   0.871   3.631  0.5229 -0.7662 -0.2291
 1036SOL     OW 3288   0.943   2.583   4.122 -0.3475  0.2427  0.0030
 1036SOL    HW1 3289   1.024   2.530   4.147 -1.6402 -0.7240  2.4459
 1036SOL    HW2 3290   0.914   2.557   4.030  1.2736 -0.4089 -0.3613
 1037SOL     OW 3291   1.757   3.879   1.978  0.2650  0.3657 -0.0335
 1037SOL    HW1 3292   1.814   3.954   1.944  2.6904 -0.4688  1.8686
 1037SOL    HW2 3293   1.748   3.809   1.906  2.1000  0.3130 -0.2482
 1038SOL     OW 3294   3.988   3.976   1.786 -0.0296  0.7966 -0.1145
 1038SOL    HW1 3295   4.054   3.962   1.713  0.0854  1.5736 -0.1705
 1038SOL    HW2 3296   4.020   3.930   1.869  1.0999  1.9794  0.1468
 1039SOL     OW 3297   2.945   3.804   4.681  0.0579  0.2871 -0.5108
 1039SOL    HW1 3298   2.894   3.874   4.732  1.6308  2.3762 -1.6658
 1039SOL    HW2 3299   2.883   3.728   4.661 -1.9146  1.5790  0.2907
 1040SOL     OW 3300   1.032   3.028   4.036  0.1204 -0.2482  0.1550
 1040SOL    HW1 3301   1.021   2.978   4.123 -2.8551  0.1307  0.0809
 1040SOL    HW2 3302   1.005   3.123   4.049  1.0835  0.1834 -0.8689
 1041SOL     OW 3303   5.118   2.414   3.999 -0.3110 -0.0342  0.4729
 1041SOL    HW1 3304   5.218   2.408   4.006 -0.3438 -0.3086  0.7599
 1041SOL    HW2 3305   5.092   2.411   3.903  0.0440  1.6181  0.3079
 1042SOL     OW 3306   1.676   4.240   3.184  0.6090  0.1271  0.4396
 1042SOL    HW1 3307   1.657   4.172   3.256  0.4323 -2.6353 -2.0082
 1042SOL    HW2 3308   1.599   4.242   3.121  1.8544  0.4796 -1.1228
 1043SOL     OW 3309   5.749   3.083   4.387  0.6983 -0.0196  0.4069
 1043SOL    HW1 3310   5.725   2.996   4.345 -0.8377  0.2452  0.6760
 1043SOL    HW2 3311   5.849   3.088   4.398  0.9738 -0.8587 -1.4560
 1044SOL     OW 3312   3.541   2.610   1.030 -0.3092 -0.3413 -0.3558
 1044SOL    HW1 3313   3.519   2.633   0.935 -2.1689 -1.9556 -0.3687
 1044SOL    HW2 3314   3.549   2.694   1.083 -0.6822  0.5288 -1.6384
 1045SOL     OW 3315   3.303   4.053   1.421 -0.0007  0.3210  0.0706
 1045SOL    HW1 3316   3.289   4.133   1.479  2.3805  0.5142  0.4841
 1045SOL    HW2 3317   3.399   4.024   1.427 -0.1116 -0.8171 -2.3055
 1046SOL     OW 3318   1.991   3.866   3.433 -0.0885 -0.0734  0.3569
 1046SOL    HW1 3319   1.928   3.895   3.360 -0.1306 -1.3169 -0.1307
 1046SOL    HW2 3320   1.946   3.877   3.521 -0.1924  1.0545  0.1842
 1047SOL     OW 3321   4.006   5.163   1.781 -0.3348  0.4719 -0.0595
 1047SOL    HW1 3322   4.001   5.170   1.880 -1.2158 -0.4140 -0.0285
 1047SOL    HW2 3323   3.941   5.228   1.740 -1.0331 -0.1689 -0.0041
 1048SOL     OW 3324   1.849   4.330   2.095  1.1828  0.0522  0.2124
 1048SOL    HW1 3325   1.848   4.257   2.163  0.6245  0.1827  0.3472
 1048SOL    HW2 3326   1.923   4.394   2.116  0.9583  0.1353  0.7395
 1049SOL     OW 3327   3.961   2.870   1.698 -0.1822  0.1048  0.0345
 1049SOL    HW1 3328   3.920   2.938   1.637  1.8898  0.7618 -0.7269
 1049SOL    HW2 3329   4.035   2.913   1.749  0.1252 -1.2125  0.7298
 1050SOL     OW 3330   1.417   2.947   4.104  0.4727  0.5127 -0.7436
 1050SOL    HW1 3331   1.476   2.900   4.170 -1.7057  1.0498  1.7864
 1050SOL    HW2 3332   1.360   2.880   4.057 -0.6263  0.3233  0.7776
 1051SOL     OW 3333   1.717   4.662   2.653  0.5303  0.2143 -0.0821
 1051SOL    HW1 3334   1.749   4.576   2.693  2.7412 -0.0321 -2.1419
 1051SOL    HW2 3335   1.775   4.737   2.685 -0.5198  0.7324  0.6347
 1052SOL     OW 3336   0.312   3.490   4.113  0.1524  0.2740 -0.6558
 1052SOL    HW1 3337   0.240   3.477   4.045 -0.6552 -2.3909  0.5758
 1052SOL    HW2 3338   0.270   3.497   4.204  1.3922 -1.2252  0.0739
 1053SOL     OW 3339   3.217   5.536   1.935 -0.1216  0.1748  0.0988
 1053SOL    HW1 3340   3.159   5.456   1.951  0.4260 -0.0256  1.2269
 1053SOL    HW2 3341   3.296   5.532   1.996  1.0697  0.4727 -1.3576
 1054SOL     OW 3342   4.771   2.991   3.287 -0.0866 -0.3616 -0.0772
 1054SOL    HW1 3343   4.810   2.956   3.373 -2.0784 -1.9925  0.2317
 1054SOL    HW2 3344   4.687   2.941   3.266 -0.9906  1.7186 -1.7185
 1055SOL     OW 3345   4.729   1.739   2.991 -0.0040  0.1206  0.3223
 1055SOL    HW1 3346   4.797   1.763   2.922  0.5647  0.0935  0.8610
 1055SOL    HW2 3347   4.652   1.691   2.947  0.0342  0.6956 -0.3782
 1056SOL     OW 3348   2.456   2.167   4.792  0.3550 -0.0793 -0.0239
 1056SOL    HW1 3349   2.357   2.151   4.800 -0.2809  2.1856 -2.0277
 1056SOL    HW2 3350   2.490   2.204   4.878 -0.7481  0.0603  0.3729
 1057SOL     OW 3351   1.785   1.856   3.518 -0.1052 -0.3384 -0.2831
 1057SOL    HW1 3352   1.729   1.804   3.582  0.5443 -0.2721  0.3524
 1057SOL    HW2 3353   1.879   1.822   3.521  0.4567  1.2318  0.5634
 1058SOL     OW 3354   2.868   2.173   4.909 -0.5738  0.8543 -0.1726
 1058SOL    HW1 3355   2.955   2.124   4.911 -0.4688  1.0548  0.4924
 1058SOL    HW2 3356   2.864   2.230   4.827  1.2700  3.2323  1.2754
 1059SOL     OW 3357   4.841   3.908   1.891  0.1061  0.0604 -0.1209
 1059SOL    HW1 3358   4.813   4.003   1.899 -0.7286 -0.2455  0.8870
 1059SOL    HW2 3359   4.833   3.864   1.981  2.1521 -0.5264 -0.1771
 1060SOL     OW 3360   3.987   4.266   2.818  0.2438  0.0477  0.0314
 1060SOL    HW1 3361   3.930   4.312   2.886 -1.0345  1.2990 -1.8083
 1060SOL    HW2 3362   4.072   4.317   2.806  0.0264  0.3929 -0.0334
 1061ETH      C 3363   4.538   2.485   3.503  0.6215 -0.0769  1.1626
 1061ETH     C1 3364   4.399   2.512   3.561  0.2398  0.1960  0.1785
 1061ETH      O 3365   4.326   2.395   3.579 -0.1766  0.1810 -0.1440
 1061ETH      H 3366   4.538   2.442   3.402 -1.7641 -1.8254  1.8099
 1061ETH     H1 3367   4.588   2.410   3.566  0.6578 -1.3325 -0.2753
 1061ETH     H2 3368   4.603   2.573   3.506 -0.3138  0.7124 -0.4132
 1061ETH     H3 3369   4.404   2.566   3.656 -1.1738  0.2660  0.2344
 1061ETH     H4 3370   4.350   2.577   3.487  3.0094 -0.4247 -2.4172
 1061ETH     H5 3371   4.377   2.324   3.536  2.1573  1.9573 -0.5360
 1062ETH      C 3372   2.334   1.391   4.603 -0.0067 -0.1754  0.4607
 1062ETH     C1 3373   2.251   1.372   4.481  0.5075 -0.7084  0.8814
 1062ETH      O 3374   2.322   1.316   4.371  0.1503  0.1064  0.0333
 1062ETH      H 3375   2.289   1.463   4.672 -0.2433 -0.7335  0.9025
 1062ETH     H1 3376   2.422   1.446   4.568 -2.1881  3.3059  0.0311
 1062ETH     H2 3377   2.356   1.297   4.657 -0.6612 -0.0662  0.9236
 1062ETH     H3 3378   2.154   1.323   4.498 -1.4793  2.9253  0.9369
 1062ETH     H4 3379   2.220   1.473   4.452  0.8335 -1.1282 -1.1075
 1062ETH     H5 3380   2.395   1.375   4.344 -0.5336  0.4570 -1.1054
 1063ETH      C 3381   1.835   2.913   1.095  0.5730  0.1280 -0.4250
 1063ETH     C1 3382   1.843   2.762   1.139  0.1089 -0.7309  0.0386
 1063ETH      O 3383   1.856   2.693   1.017  0.6289  0.2473 -0.4087
 1063ETH      H 3384   1.759   2.911   1.015  1.1584  1.0355 -1.0195
 1063ETH     H1 3385   1.931   2.946   1.055  0.2307  0.0515 -1.3537
 1063ETH     H2 3386   1.797   2.981   1.171 -2.7401 -0.5289 -1.3092
 1063ETH     H3 3387   1.928   2.742   1.205  0.3712  1.0780  0.3059
 1063ETH     H4 3388   1.760   2.731   1.204  1.3369 -1.7460  1.1766
 1063ETH     H5 3389   1.925   2.732   0.961  0.3694  1.1765 -0.1073
 1064ETH      C 3390   3.841   1.682   2.162 -0.0961  0.2832  0.5263
 1064ETH     C1 3391   3.905   1.749   2.037 -0.3798  0.0331 -0.4107
 1064ETH      O 3392   3.919   1.659   1.935  0.5363 -0.0445 -0.3775
 1064ETH      H 3393   3.892   1.587   2.180  0.0577  0.5467  1.5311
 1064ETH     H1 3394   3.732   1.676   2.146 -0.0758 -1.2905  0.8374
 1064ETH     H2 3395   3.837   1.739   2.255 -0.4232  0.6535  0.2913
 1064ETH     H3 3396   3.836   1.828   2.003  0.0590 -0.1180 -1.7303
 1064ETH     H4 3397   4.001   1.800   2.048 -0.9633  1.2087 -0.6084
 1064ETH     H5 3398   4.012   1.637   1.918  0.1266 -2.5693  0.2573
 1065ETH      C 3399   4.075   2.237   4.536 -0.8076 -0.0978 -0.8874
 1065ETH     C1 3400   3.985   2.315   4.441  0.2767 -0.2798 -0.6064
 1065ETH      O 3401   3.934   2.430   4.501  0.4206 -0.6665  0.1717
 1065ETH      H 3402   4.104   2.143   4.487 -0.5254  0.3499 -1.5805
 1065ETH     H1 3403   4.035   2.218   4.636  2.1854 -0.1343  0.4133
 1065ETH     H2 3404   4.164   2.299   4.549 -0.8448 -0.4759  1.9638
 1065ETH     H3 3405   4.053   2.351   4.362  3.2133 -1.4199  1.2160
 1065ETH     H4 3406   3.913   2.247   4.394 -0.8572 -1.0163  2.0567
 1065ETH     H5 3407   3.879   2.479   4.438  2.8296  2.4960  0.2710
 1066ETH      C 3408   4.091   1.079   3.721 -0.0760 -0.0215  0.6726
 1066ETH     C1 3409   4.079   1.155   3.859  0.2802  0.9810 -0.0829
 1066ETH      O 3410   4.059   1.299   3.836 -0.0129  0.2696  0.1258
 1066ETH      H 3411   4.197   1.089   3.694 -0.0220  0.2634  0.9716
 1066ETH     H1 3412   4.030   1.111   3.636  0.4287  0.4591  0.4880
 1066ETH     H2 3413   4.074   0.972   3.733  0.6615 -0.5826 -2.4191
 1066ETH     H3 3414   3.986   1.115   3.901 -0.1328  1.4883 -0.4953
 1066ETH     H4 3415   4.169   1.130   3.916  1.4625  1.6137 -1.5963
 1066ETH     H5 3416   4.095   1.308   3.746  0.5023 -0.2550  0.2768
 1067ETH      C 3417   5.202   4.131   1.955  0.3930  0.1678  0.1188
 1067ETH     C1 3418   5.147   4.214   2.075  0.5987 -0.3425 -0.1931
 1067ETH      O 3419   5.008   4.223   2.071 -0.4931  0.2622  0.3206
 1067ETH      H 3420   5.297   4.096   1.998 -0.3186 -1.4287  0.4580
 1067ETH     H1 3421   5.217   4.195   1.867 -1.3976  2.7456  1.5925
 1067ETH     H2 3422   5.139   4.045   1.930  1.4133 -0.3030 -0.9380
 1067ETH     H3 3423   5.173   4.159   2.166  0.3326 -0.7706 -0.3759
 1067ETH     H4 3424   5.193   4.313   2.082 -0.4616  0.2550 -1.2497
 1067ETH     H5 3425   4.985   4.240   1.978 -2.2492  1.7232  0.9612
 1068ETH      C 3426   4.507   0.708   2.780 -0.6675  0.0947 -0.1352
 1068ETH     C1 3427   4.464   0.562   2.774  0.7254  0.0166  0.4234
 1068ETH      O 3428   4.352   0.561   2.676 -0.3932 -0.5948  0.2788
 1068ETH      H 3429   4.547   0.743   2.684  0.1323  0.5474  0.3502
 1068ETH     H1 3430   4.587   0.712   2.856 -1.1320 -1.0373  0.4427
 1068ETH     H2 3431   4.431   0.778   2.815  0.8330  1.9361 -0.4339
 1068ETH     H3 3432   4.543   0.494   2.738 -0.0484 -0.8190  0.2762
 1068ETH     H4 3433   4.440   0.522   2.873  3.0525  0.3170  1.1697
 1068ETH     H5 3434   4.281   0.615   2.717 -2.1748 -1.9796 -0.8218
 1069ETH      C 3435   3.156   2.730   5.702  0.0855  0.1663 -0.2137
 1069ETH     C1 3436   3.155   2.685   5.847 -0.8588 -0.3330 -0.5076
 1069ETH      O 3437   3.174   2.801   5.935  0.2903  0.0926  0.4322
 1069ETH      H 3438   3.083   2.813   5.702  0.2695  0.3389 -1.3416
 1069ETH     H1 3439   3.129   2.652   5.630 -0.1047  0.8807 -0.9287
 1069ETH     H2 3440   3.252   2.778   5.682 -0.7097  1.6594 -0.5952
 1069ETH     H3 3441   3.058   2.642   5.874  0.4250 -3.0694  0.1297
 1069ETH     H4 3442   3.226   2.606   5.872 -1.9757 -0.9159  0.9667
 1069ETH     H5 3443   3.136   2.878   5.889 -3.2142 -1.9856 -0.5959
 1070ETH      C 3444   4.748   5.045   2.491 -0.1302 -0.2685 -0.0471
 1070ETH     C1 3445   4.667   4.991   2.610 -0.2530 -0.0141 -0.0622
 1070ETH      O 3446   4.526   5.007   2.575 -0.1271  0.0643 -0.0229
 1070ETH      H 3447   4.855   5.034   2.509 -0.4705 -0.1357  2.3541
 1070ETH     H1 3448   4.734   5.151   2.467 -0.0878 -0.7371 -2.3808
 1070ETH     H2 3449   4.716   4.990   2.401 -2.9228 -2.0168  1.8445
 1070ETH     H3 3450   4.696   4.885   2.620 -1.0430 -0.2407 -0.0969
 1070ETH     H4 3451   4.691   5.056   2.695 -0.1156  1.5453 -1.2464
 1070ETH     H5 3452   4.505   5.088   2.626 -1.3642  1.0704 -1.9774
 1071ETH      C 3453   4.907   1.654   3.760 -0.1526 -0.2424 -0.2136
 1071ETH     C1 3454   5.007   1.768   3.743  0.0524  0.2775  0.1204
 1071ETH      O 3455   4.989   1.837   3.623 -0.1541  0.0362  0.2054
 1071ETH      H 3456   4.806   1.691   3.780  0.3587  3.2264 -3.0097
 1071ETH     H1 3457   4.932   1.595   3.849  0.9293  0.5688  0.0461
 1071ETH     H2 3458   4.900   1.590   3.672 -0.7616  1.3551 -1.3790
 1071ETH     H3 3459   5.011   1.835   3.829  0.0911 -1.7175  1.7359
 1071ETH     H4 3460   5.106   1.721   3.741  0.1919  0.4665 -2.9814
 1071ETH     H5 3461   4.893   1.833   3.607  0.2260 -2.5185 -2.3391
 1072ETH      C 3462   2.322   4.053   4.810  0.0031  0.5045 -0.1689
 1072ETH     C1 3463   2.261   4.097   4.679  0.0609  0.0163 -0.4045
 1072ETH      O 3464   2.190   3.998   4.613  0.7204  0.3838  0.5502
 1072ETH      H 3465   2.249   4.011   4.879  0.7584  2.0343  1.6564
 1072ETH     H1 3466   2.358   4.147   4.854  1.2785 -0.3019  0.5977
 1072ETH     H2 3467   2.399   3.976   4.797 -1.7619 -1.2556 -0.6479
 1072ETH     H3 3468   2.191   4.178   4.702 -0.9109 -0.9131 -0.0311
 1072ETH     H4 3469   2.337   4.130   4.607 -0.5963  0.3053 -0.9737
 1072ETH     H5 3470   2.188   3.921   4.672  1.4527 -1.7513 -2.0482
 1073ETH      C 3471   3.356   2.799   2.184 -0.1813 -0.7642 -0.3102
 1073ETH     C1 3472   3.507   2.818   2.183  0.3685 -0.2840 -0.4927
 1073ETH      O 3473   3.539   2.958   2.172 -0.0969  0.2382 -0.8292
 1073ETH      H 3474   3.324   2.694   2.178 -0.2719 -0.6806 -1.8301
 1073ETH     H1 3475   3.313   2.863   2.106  0.2923  0.1289  0.1570
 1073ETH     H2 3476   3.309   2.826   2.279  0.2408 -1.3383  0.0666
 1073ETH     H3 3477   3.557   2.783   2.274 -0.8444  0.3807  0.4588
 1073ETH     H4 3478   3.547   2.769   2.093 -0.1381  0.4869 -1.1519
 1073ETH     H5 3479   3.481   2.985   2.099  1.4820  1.0001 -1.8644
 1074ETH      C 3480   4.239   5.352   2.573  0.1344  0.5331 -0.4530
 1074ETH     C1 3481   4.161   5.277   2.463  0.1954  0.2486  0.0383
 1074ETH      O 3482   4.025   5.292   2.486  0.1605  0.6498 -0.2958
 1074ETH      H 3483   4.227   5.460   2.558 -1.2251  0.4722  0.0206
 1074ETH     H1 3484   4.345   5.332   2.556 -0.2461  0.5185 -3.4428
 1074ETH     H2 3485   4.209   5.330   2.676  0.7771 -0.4884 -0.4713
 1074ETH     H3 3486   4.183   5.315   2.362 -0.8759 -2.0829 -1.1612
 1074ETH     H4 3487   4.182   5.169   2.464  1.1604  0.4201  2.0475
 1074ETH     H5 3488   3.997   5.206   2.523  1.9780 -0.2542 -0.9048
 1075ETH      C 3489   3.949   2.646   1.293 -0.0077 -0.8988 -0.1851
 1075ETH     C1 3490   3.908   2.567   1.420 -0.8056 -0.0814  0.4607
 1075ETH      O 3491   3.925   2.425   1.392  0.2261 -0.6441  0.3745
 1075ETH      H 3492   4.058   2.645   1.277  0.3595 -0.6914  1.9942
 1075ETH     H1 3493   3.927   2.753   1.302 -0.5295 -1.1170  1.4119
 1075ETH     H2 3494   3.893   2.600   1.211 -0.4912 -0.6697  0.0170
 1075ETH     H3 3495   3.968   2.607   1.503  1.7474 -0.6445 -1.0321
 1075ETH     H4 3496   3.798   2.576   1.421 -0.8910 -0.6559 -1.2378
 1075ETH     H5 3497   3.876   2.405   1.311 -0.3932  0.6668  0.3913
 1076ETH      C 3498   2.014   2.922   4.335 -0.6578 -0.7080  0.0215
 1076ETH     C1 3499   1.892   2.887   4.244  0.1238 -0.7403  0.5698
 1076ETH      O 3500   1.773   2.894   4.318  0.0929  0.8890  0.0511
 1076ETH      H 3501   2.010   3.022   4.381  0.3573 -0.5043 -0.3036
 1076ETH     H1 3502   2.101   2.916   4.269  1.7900 -1.4397  3.0827
 1076ETH     H2 3503   2.007   2.851   4.419 -1.8623 -0.0329  0.5154
 1076ETH     H3 3504   1.894   2.966   4.168 -2.3936  0.1526  1.3172
 1076ETH     H4 3505   1.922   2.794   4.195  1.9560  0.9033 -1.6305
 1076ETH     H5 3506   1.765   2.982   4.357 -4.0114  0.7509 -0.0666
 1077ETH      C 3507   2.551   4.282   4.597  1.0199 -0.6288 -0.5193
 1077ETH     C1 3508   2.637   4.156   4.559  0.3811 -0.2705 -0.4510
 1077ETH      O 3509   2.768   4.157   4.619 -0.1396 -0.0071 -0.2624
 1077ETH      H 3510   2.456   4.275   4.544  0.3971 -1.0723  0.6293
 1077ETH     H1 3511   2.599   4.377   4.570  0.8757 -0.4707 -0.2197
 1077ETH     H2 3512   2.531   4.281   4.705 -0.6932 -1.1188 -0.8212
 1077ETH     H3 3513   2.580   4.067   4.586  0.2106 -0.6834 -2.0755
 1077ETH     H4 3514   2.643   4.161   4.450 -0.6335 -2.0232 -0.6158
 1077ETH     H5 3515   2.770   4.098   4.696  1.0814  0.3258 -0.0325
 1078ETH      C 3516   1.338   4.780   2.742  0.1657 -0.3095 -0.0390
 1078ETH     C1 3517   1.327   4.660   2.647 -0.0978 -0.0221  0.6726
 1078ETH      O 3518   1.424   4.676   2.547 -0.4944  0.2406 -0.0258
 1078ETH      H 3519   1.410   4.769   2.824 -2.1929  0.0585  2.2119
 1078ETH     H1 3520   1.241   4.798   2.789  0.8376  2.2644  0.5449
 1078ETH     H2 3521   1.363   4.869   2.683 -1.3305  0.4823  0.4746
 1078ETH     H3 3522   1.337   4.568   2.706  2.7937  0.9923  1.9461
 1078ETH     H4 3523   1.230   4.677   2.599 -0.2024 -0.7141  0.6289
 1078ETH     H5 3524   1.512   4.667   2.587 -0.3448  0.7439 -0.2362
 1079ETH      C 3525   0.798   3.612   2.265  0.3237  0.3395  0.1466
 1079ETH     C1 3526   0.900   3.614   2.380  0.5873 -0.3540  0.2975
 1079ETH      O 3527   0.974   3.735   2.370  0.1522 -0.1639  0.2259
 1079ETH      H 3528   0.736   3.702   2.265 -0.5630 -0.2540 -0.2034
 1079ETH     H1 3529   0.734   3.526   2.286  0.3153  0.4834  0.7253
 1079ETH     H2 3530   0.846   3.609   2.166 -0.5722  3.1031 -0.4516
 1079ETH     H3 3531   0.842   3.606   2.472  2.8211  0.1523  1.8337
 1079ETH     H4 3532   0.963   3.526   2.368 -0.0648 -1.0411  1.6642
 1079ETH     H5 3533   1.053   3.712   2.319 -0.9538  2.3528 -3.0108
 1080ETH      C 3534   2.208   3.207   5.380 -0.2401 -0.8709 -0.0533
 1080ETH     C1 3535   2.146   3.296   5.495 -0.1305 -0.5380 -0.3298
 1080ETH      O 3536   2.219   3.416   5.522 -0.4605 -0.4960 -0.2367
 1080ETH      H 3537   2.165   3.107   5.368  0.8894 -1.1275 -2.5508
 1080ETH     H1 3538   2.315   3.192   5.399 -0.3354 -1.3720  0.0850
 1080ETH     H2 3539   2.213   3.269   5.290  0.5421 -0.0469  0.5387
 1080ETH     H3 3540   2.046   3.329   5.464 -0.1082  0.8254  0.9663
 1080ETH     H4 3541   2.148   3.231   5.583  3.7717 -2.3212 -1.5194
 1080ETH     H5 3542   2.305   3.406   5.567 -0.0102  0.4937 -0.8272
 1081ETH      C 3543   4.378   0.810   3.303  0.1636  0.2716 -0.0624
 1081ETH     C1 3544   4.366   0.897   3.173 -0.7457 -0.2830 -0.0776
 1081ETH      O 3545   4.306   1.027   3.194 -0.2376  0.8812  0.3302
 1081ETH      H 3546   4.292   0.827   3.368  0.1463  1.4670 -0.3753
 1081ETH     H1 3547   4.470   0.836   3.358  0.3326 -2.5450  1.1338
 1081ETH     H2 3548   4.392   0.704   3.281  0.1943  0.0844  0.8127
 1081ETH     H3 3549   4.469   0.910   3.136  0.0884  1.0203  2.4916
 1081ETH     H4 3550   4.303   0.837   3.106 -0.1573 -0.7423 -0.2357
 1081ETH     H5 3551   4.210   1.013   3.201 -0.0898 -1.7852 -1.4199
 1082ETH      C 3552   2.054   3.362   4.580  0.8645  0.2684 -0.5436
 1082ETH     C1 3553   1.961   3.284   4.669 -0.1191  0.3401 -0.1751
 1082ETH      O 3554   1.965   3.146   4.627  0.6112  1.0499 -0.3119
 1082ETH      H 3555   2.154   3.317   4.584  1.4387  1.5761  1.4288
 1082ETH     H1 3556   2.073   3.462   4.621 -0.7929  0.0331  0.9319
 1082ETH     H2 3557   2.024   3.357   4.475  2.0674 -1.3060 -0.8531
 1082ETH     H3 3558   1.990   3.295   4.774  1.4133 -0.1013 -0.5331
 1082ETH     H4 3559   1.855   3.310   4.655 -0.1835 -0.4340 -1.2465
 1082ETH     H5 3560   2.053   3.112   4.648  0.1552  0.3330  0.5116
 1083ETH      C 3561   3.752   1.145   3.995 -0.2282  0.4211 -0.5313
 1083ETH     C1 3562   3.720   1.217   3.870  0.5104  0.0946  0.9482
 1083ETH      O 3563   3.630   1.135   3.783  0.0388 -0.1714 -0.2517
 1083ETH      H 3564   3.778   1.039   3.987  2.5409  0.8533  1.3762
 1083ETH     H1 3565   3.666   1.136   4.063  1.3695 -0.5143  1.4594
 1083ETH     H2 3566   3.817   1.218   4.044  0.4220 -0.3042 -0.3054
 1083ETH     H3 3567   3.674   1.312   3.900 -2.9462 -0.9357 -0.5124
 1083ETH     H4 3568   3.815   1.230   3.817  0.3384 -1.7082  0.1310
 1083ETH     H5 3569   3.562   1.190   3.743 -1.2289 -1.9407 -0.6416
 1084ETH      C 3570   2.379   2.137   1.717 -0.3215  0.0159  0.4366
 1084ETH     C1 3571   2.372   1.981   1.707 -0.2774 -0.2192 -0.0473
 1084ETH      O 3572   2.470   1.928   1.802 -0.1104  0.2905  0.1853
 1084ETH      H 3573   2.431   2.181   1.631  1.0431 -2.2794 -0.0095
 1084ETH     H1 3574   2.439   2.173   1.801  0.8775 -0.8060 -0.0398
 1084ETH     H2 3575   2.277   2.174   1.733 -0.6909 -2.0009  3.6199
 1084ETH     H3 3576   2.273   1.940   1.728  0.0165 -2.7076 -2.8811
 1084ETH     H4 3577   2.390   1.950   1.603 -1.0677 -0.0763 -0.2318
 1084ETH     H5 3578   2.548   1.896   1.752 -0.4911  0.9163 -0.8435
 1085ETH      C 3579   2.538   3.130   1.584  0.2469  0.3944  0.2485
 1085ETH     C1 3580   2.625   3.254   1.615 -0.3360  0.0366  0.0668
 1085ETH      O 3581   2.646   3.336   1.492 -0.2562 -0.0196 -0.3427
 1085ETH      H 3582   2.511   3.087   1.680  1.3814  2.4657  1.5714
 1085ETH     H1 3583   2.586   3.065   1.509 -0.5144  0.7138 -0.5363
 1085ETH     H2 3584   2.443   3.163   1.540  0.4024  0.0387 -0.3643
 1085ETH     H3 3585   2.596   3.316   1.701  0.9339 -1.7110  1.8275
 1085ETH     H4 3586   2.724   3.219   1.645  0.6910  0.1883 -2.8368
 1085ETH     H5 3587   2.557   3.363   1.465 -0.7069  0.1041  1.1381
 1086ETH      C 3588   2.135   2.286   1.161 -0.0412 -0.4063  0.3327
 1086ETH     C1 3589   2.259   2.358   1.229 -0.1421  0.5317 -0.3364
 1086ETH      O 3590   2.272   2.498   1.226  0.7488  0.3129 -0.2848
 1086ETH      H 3591   2.127   2.325   1.059 -1.2987 -0.3021  0.4496
 1086ETH     H1 3592   2.040   2.294   1.216  0.1637  0.5049  0.5814
 1086ETH     H2 3593   2.173   2.185   1.144  2.0792  0.5263 -0.9554
 1086ETH     H3 3594   2.251   2.341   1.338  1.7156 -0.6996 -0.3506
 1086ETH     H4 3595   2.348   2.311   1.185 -0.4617 -0.6952  0.2708
 1086ETH     H5 3596   2.301   2.519   1.135  2.1954  1.3759  0.4000
 1087ETH      C 3597   2.512   4.560   1.157  0.3149 -0.1274 -0.3449
 1087ETH     C1 3598   2.532   4.585   1.306  0.2874  1.1026 -0.4946
 1087ETH      O 3599   2.667   4.567   1.347  0.0259 -0.5193  0.0650
 1087ETH      H 3600   2.519   4.455   1.125  1.6799  0.1790 -1.1108
 1087ETH     H1 3601   2.587   4.611   1.097  0.5194  0.1433  0.1345
 1087ETH     H2 3602   2.410   4.586   1.127  0.8541  1.0305 -1.2159
 1087ETH     H3 3603   2.492   4.685   1.327  0.8591  1.2991 -0.3487
 1087ETH     H4 3604   2.463   4.524   1.366  1.4325  0.7526  0.5022
 1087ETH     H5 3605   2.666   4.514   1.428 -1.8002  0.2747  0.6256
 1088ETH      C 3606   5.179   3.591   4.475  0.4344  0.3671 -0.8904
 1088ETH     C1 3607   5.249   3.456   4.500  0.0047  0.4642  0.3472
 1088ETH      O 3608   5.359   3.434   4.413 -0.2959 -0.0144  0.7633
 1088ETH      H 3609   5.125   3.628   4.563  0.1443  1.7076 -1.6094
 1088ETH     H1 3610   5.108   3.588   4.392 -0.2671  2.2436 -0.4094
 1088ETH     H2 3611   5.254   3.665   4.447  2.1390 -0.0347  2.1908
 1088ETH     H3 3612   5.286   3.453   4.603 -0.1206 -0.7729  0.3664
 1088ETH     H4 3613   5.178   3.373   4.507  1.6284 -0.9190  1.2632
 1088ETH     H5 3614   5.341   3.480   4.329 -1.3876  0.3240  1.1614
 1089ETH      C 3615   1.233   4.524   3.315  0.0333  0.1293 -0.0426
 1089ETH     C1 3616   1.288   4.509   3.172 -0.3598 -0.4665 -0.0617
 1089ETH      O 3617   1.431   4.489   3.180 -0.3440  0.0001  0.0428
 1089ETH      H 3618   1.261   4.616   3.368  2.9789  1.1747 -3.0730
 1089ETH     H1 3619   1.252   4.439   3.382 -1.6547  0.9490  1.5761
 1089ETH     H2 3620   1.127   4.524   3.290  0.2361 -2.2648 -1.1198
 1089ETH     H3 3621   1.243   4.421   3.125 -1.8548 -1.1302  2.4480
 1089ETH     H4 3622   1.252   4.597   3.117  2.1105  2.0798  2.0661
 1089ETH     H5 3623   1.447   4.397   3.152 -0.7489  0.8381 -3.4127
 1090ETH      C 3624   2.498   5.196   3.094  0.2821 -0.1235 -0.4758
 1090ETH     C1 3625   2.543   5.106   2.984 -0.8917 -0.2270 -0.0767
 1090ETH      O 3626   2.664   5.032   3.018  0.2687 -0.2209 -0.2228
 1090ETH      H 3627   2.507   5.144   3.190 -0.7377 -1.9023 -1.3185
 1090ETH     H1 3628   2.396   5.229   3.076  0.3279  3.5292  3.9708
 1090ETH     H2 3629   2.559   5.288   3.099  0.0820 -0.0423  1.7791
 1090ETH     H3 3630   2.464   5.038   2.951  0.8229 -1.4849 -1.8658
 1090ETH     H4 3631   2.564   5.170   2.897  1.4317 -1.3211 -0.3949
 1090ETH     H5 3632   2.719   5.081   3.082 -2.2183 -0.2106  2.0856
 1091ETH      C 3633   2.842   1.561   2.346  0.6403 -0.7512  0.2336
 1091ETH     C1 3634   2.803   1.672   2.248 -0.2044 -0.4742  0.5417
 1091ETH      O 3635   2.846   1.799   2.303 -0.1465  0.4316 -0.3456
 1091ETH      H 3636   2.801   1.462   2.325 -0.3512 -0.3592  0.2734
 1091ETH     H1 3637   2.805   1.586   2.446  1.3010  1.7342 -0.0844
 1091ETH     H2 3638   2.951   1.570   2.338  0.5839  0.4420  0.6110
 1091ETH     H3 3639   2.851   1.664   2.149 -0.3038  0.9417  0.3673
 1091ETH     H4 3640   2.695   1.667   2.234 -0.0928  1.2350 -1.3631
 1091ETH     H5 3641   2.882   1.850   2.229 -0.7470 -0.8768 -1.5778
 1092ETH      C 3642   2.829   3.149   2.376  0.1278 -0.7354 -0.1069
 1092ETH     C1 3643   2.718   3.267   2.367  0.2223  0.1301  0.0951
 1092ETH      O 3644   2.635   3.254   2.476  0.1528 -0.7186  0.9024
 1092ETH      H 3645   2.785   3.051   2.353  2.3253 -2.2687  1.7167
 1092ETH     H1 3646   2.876   3.133   2.474  1.2985  0.4891 -0.4374
 1092ETH     H2 3647   2.906   3.169   2.301  1.1765 -0.8591  0.8977
 1092ETH     H3 3648   2.752   3.371   2.371 -1.3825  0.6417  1.7817
 1092ETH     H4 3649   2.671   3.258   2.268  0.2060  0.4006  0.0785
 1092ETH     H5 3650   2.614   3.159   2.479  2.2925 -1.2803  0.0716
 1093ETH      C 3651   2.483   3.329   0.433 -0.3228  0.2027  0.0833
 1093ETH     C1 3652   2.523   3.223   0.537 -0.9322  0.2928 -0.0988
 1093ETH      O 3653   2.453   3.224   0.664  0.0309  0.2167  0.0787
 1093ETH      H 3654   2.531   3.294   0.340 -0.5792 -0.8371  0.3282
 1093ETH     H1 3655   2.516   3.430   0.462 -0.7691  0.3203  0.1820
 1093ETH     H2 3656   2.376   3.335   0.412  0.0131  0.9477 -1.5426
 1093ETH     H3 3657   2.493   3.123   0.504 -1.2493 -1.3319  4.3896
 1093ETH     H4 3658   2.631   3.221   0.556 -0.9211 -1.9012 -0.1508
 1093ETH     H5 3659   2.501   3.281   0.727  0.4184  0.2312 -0.2212
 1094ETH      C 3660   0.694   3.953   3.975 -0.4255 -0.6644 -0.4017
 1094ETH     C1 3661   0.672   3.921   3.836  0.1363 -0.3342  0.3937
 1094ETH      O 3662   0.534   3.913   3.824 -0.0195  0.6886  0.4041
 1094ETH      H 3663   0.782   3.896   4.005 -0.9913 -2.3398 -1.7540
 1094ETH     H1 3664   0.605   3.946   4.039 -0.2111 -1.6916 -0.1951
 1094ETH     H2 3665   0.738   4.052   3.963  1.8415 -1.5125  0.5088
 1094ETH     H3 3666   0.699   4.013   3.782 -2.0634  1.1012  1.5636
 1094ETH     H4 3667   0.717   3.827   3.802 -0.6468 -0.5572 -0.0568
 1094ETH     H5 3668   0.510   3.896   3.917 -0.0788 -2.9215 -0.1474
 1095ETH      C 3669   3.664   4.281   3.915  0.2715  0.0178  0.1126
 1095ETH     C1 3670   3.529   4.337   3.885  0.4792  0.5884  1.1895
 1095ETH      O 3671   3.519   4.353   3.746 -0.4397 -0.0259 -0.3228
 1095ETH      H 3672   3.740   4.354   3.886 -0.7261  1.0550 -0.0031
 1095ETH     H1 3673   3.682   4.188   3.860  0.7233  0.2349 -0.1141
 1095ETH     H2 3674   3.679   4.259   4.021  1.7366 -2.7976 -0.5987
 1095ETH     H3 3675   3.444   4.277   3.919  1.1984 -0.9608  0.3497
 1095ETH     H4 3676   3.517   4.435   3.932 -2.6665  1.9376 -1.9439
 1095ETH     H5 3677   3.571   4.279   3.710  3.1039  1.7981  0.6092
 1096ETH      C 3678   3.939   0.191   3.255 -0.2639 -0.6256  0.4924
 1096ETH     C1 3679   3.886   0.106   3.137 -0.6584  0.2782 -0.5767
 1096ETH      O 3680   3.996   0.027   3.082  0.6285  0.3426  0.0777
 1096ETH      H 3681   4.025   0.253   3.227  1.1325 -3.1033 -1.0069
 1096ETH     H1 3682   3.964   0.134   3.345  0.4457  0.0531  0.7368
 1096ETH     H2 3683   3.867   0.263   3.297  0.7809  0.7095  0.0520
 1096ETH     H3 3684   3.801   0.043   3.165  0.3191 -0.1312  1.7678
 1096ETH     H4 3685   3.843   0.170   3.059 -0.1790 -0.2751 -1.3043
 1096ETH     H5 3686   3.949  -0.036   3.026 -1.8242  0.4696  1.8232
 1097ETH      C 3687   0.866   2.038   3.023 -0.4915 -0.3513  0.1084
 1097ETH     C1 3688   0.994   1.988   2.945 -0.5452  0.0750  0.3702
 1097ETH      O 3689   1.066   2.104   2.899  0.2449 -1.0948  0.6649
 1097ETH      H 3690   0.822   2.119   2.964 -1.3965 -0.0749  1.1307
 1097ETH     H1 3691   0.896   2.075   3.122  2.9052 -0.5763 -0.7293
 1097ETH     H2 3692   0.790   1.962   3.046 -1.4769 -0.0068 -1.8648
 1097ETH     H3 3693   1.062   1.928   3.006  0.4001 -0.2961 -0.9992
 1097ETH     H4 3694   0.962   1.924   2.861  0.4556 -0.2523  0.2329
 1097ETH     H5 3695   1.161   2.089   2.909  0.5510 -0.1178 -0.5268
 1098ETH      C 3696   2.576   3.346   4.493  0.1657 -0.2014  0.1889
 1098ETH     C1 3697   2.570   3.215   4.583  0.1500 -0.0732 -0.2974
 1098ETH      O 3698   2.644   3.110   4.519 -0.2609  0.4739  0.0288
 1098ETH      H 3699   2.545   3.425   4.563 -0.3624 -0.4571  0.2564
 1098ETH     H1 3700   2.520   3.330   4.400  1.5616 -0.6845 -0.5946
 1098ETH     H2 3701   2.681   3.350   4.464  0.2539 -1.2463  0.2976
 1098ETH     H3 3702   2.615   3.242   4.679 -0.3031  1.5487 -0.5064
 1098ETH     H4 3703   2.466   3.180   4.587  0.6593 -2.4785 -3.4282
 1098ETH     H5 3704   2.618   3.117   4.426 -0.4105 -0.7872 -0.0449
 1099ETH      C 3705   1.792   2.465   4.467  0.6869  0.3059  0.3976
 1099ETH     C1 3706   1.862   2.604   4.448  0.2890 -0.1430 -0.2260
 1099ETH      O 3707   1.992   2.586   4.515  0.2029  0.1034 -0.5192
 1099ETH      H 3708   1.868   2.387   4.457  0.6878  0.2967  0.4759
 1099ETH     H1 3709   1.718   2.458   4.387  2.2829 -1.3097 -1.0279
 1099ETH     H2 3710   1.745   2.457   4.566  1.2352  1.8688  0.8044
 1099ETH     H3 3711   1.887   2.626   4.344  0.3316  3.0897  0.3605
 1099ETH     H4 3712   1.808   2.690   4.489  0.3058  0.5347 -1.5681
 1099ETH     H5 3713   2.018   2.494   4.494  1.3385  0.2431  0.2002
 1100ETH      C 3714   5.008   3.170   2.846  0.4467  0.1398 -0.0016
 1100ETH     C1 3715   4.962   3.022   2.843 -0.0767  0.0745 -0.2447
 1100ETH      O 3716   4.899   3.009   2.717  0.0611  0.1053 -0.0242
 1100ETH      H 3717   5.105   3.188   2.798 -0.1941  2.0408 -0.6796
 1100ETH     H1 3718   5.032   3.196   2.950  0.8233  2.3215 -0.5928
 1100ETH     H2 3719   4.931   3.233   2.801 -1.1012  0.0303  2.2865
 1100ETH     H3 3720   5.035   2.942   2.854  0.4563 -0.2428 -4.4358
 1100ETH     H4 3721   4.875   3.012   2.909 -0.4367  1.3560 -0.4977
 1100ETH     H5 3722   4.978   3.013   2.659  0.1441  0.6717  0.1245
 1101ETH      C 3723   5.138   2.576   4.386  0.6436 -0.1066 -0.2591
 1101ETH     C1 3724   5.034   2.646   4.290  0.1917 -0.0258 -1.0089
 1101ETH      O 3725   4.984   2.555   4.201  0.6403 -0.2979  0.8911
 1101ETH      H 3726   5.149   2.626   4.483 -0.4477 -2.7820  1.3582
 1101ETH     H1 3727   5.237   2.587   4.341 -0.2877 -0.9984 -2.7039
 1101ETH     H2 3728   5.119   2.469   4.403  1.9111 -0.3599 -0.3184
 1101ETH     H3 3729   4.955   2.686   4.356 -1.0440 -1.3285 -1.6598
 1101ETH     H4 3730   5.076   2.730   4.233 -0.0634  0.4980 -0.4429
 1101ETH     H5 3731   5.054   2.523   4.142  2.7461  1.5618  2.2071
 1102ETH      C 3732   5.729   3.206   4.709  0.2671 -0.7218  1.7099
 1102ETH     C1 3733   5.768   3.059   4.723  0.1536 -0.2142 -0.3054
 1102ETH      O 3734   5.683   2.966   4.656  0.6040 -0.3493 -0.1153
 1102ETH      H 3735   5.700   3.235   4.607  1.6625 -0.2320  1.4322
 1102ETH     H1 3736   5.801   3.283   4.740 -0.5190  0.7899 -0.0571
 1102ETH     H2 3737   5.632   3.225   4.756 -0.9556 -2.6470  0.1074
 1102ETH     H3 3738   5.870   3.028   4.698  0.4822  1.2202 -0.8355
 1102ETH     H4 3739   5.761   3.045   4.832 -0.1721  0.6316 -0.2020
 1102ETH     H5 3740   5.677   2.983   4.560 -0.6418 -1.8014 -0.3288
 1103ETH      C 3741   4.038   2.721   3.168 -0.0753  0.0754  0.0244
 1103ETH     C1 3742   3.920   2.813   3.212 -0.4072  0.9218 -0.2763
 1103ETH      O 3743   3.831   2.745   3.296  0.2120 -0.2330 -0.5509
 1103ETH      H 3744   4.061   2.648   3.246 -1.0394  0.5928  0.8276
 1103ETH     H1 3745   4.129   2.779   3.149  0.9043 -1.1853  0.6655
 1103ETH     H2 3746   4.014   2.665   3.077  0.3012 -0.9618  0.5573
 1103ETH     H3 3747   3.966   2.901   3.257  1.4820 -0.6475  1.0453
 1103ETH     H4 3748   3.872   2.845   3.118 -0.3336  0.2978 -0.5372
 1103ETH     H5 3749   3.815   2.669   3.237  0.4389 -0.7395  0.0319
 1104ETH      C 3750   4.720   2.952   2.362 -0.3783  0.2204 -0.0560
 1104ETH     C1 3751   4.751   2.826   2.444 -0.5981 -0.3924  0.5237
 1104ETH      O 3752   4.779   2.717   2.350 -0.4242  0.1980  0.3567
 1104ETH      H 3753   4.753   3.049   2.399  1.0505 -1.0953  2.3737
 1104ETH     H1 3754   4.616   2.957   2.327 -0.5091 -1.7936 -0.0688
 1104ETH     H2 3755   4.770   2.939   2.265 -0.7366 -2.7941  0.0725
 1104ETH     H3 3756   4.851   2.844   2.487 -0.4958  0.6315 -0.1004
 1104ETH     H4 3757   4.673   2.794   2.514  0.4176  1.3052  2.5805
 1104ETH     H5 3758   4.872   2.719   2.322 -0.6228  1.4411 -0.2938
 1105ETH      C 3759   2.118   4.332   0.756  0.3798 -0.8005  0.3467
 1105ETH     C1 3760   2.257   4.384   0.728  0.3121 -0.2689 -0.4360
 1105ETH      O 3761   2.310   4.447   0.847  0.0503 -0.1559  0.0980
 1105ETH      H 3762   2.122   4.253   0.832  0.3455 -0.3557  0.8211
 1105ETH     H1 3763   2.065   4.302   0.665 -0.0308  0.3342  0.1931
 1105ETH     H2 3764   2.061   4.416   0.797  2.2794  1.0915 -0.6658
 1105ETH     H3 3765   2.319   4.304   0.684 -1.1072 -0.1575 -2.8479
 1105ETH     H4 3766   2.251   4.460   0.649  0.8026 -0.5775 -0.7830
 1105ETH     H5 3767   2.399   4.417   0.873  0.9075  1.1854 -1.1555
 1106ETH      C 3768   2.779   3.063   3.749 -0.1470 -0.1472  0.2448
 1106ETH     C1 3769   2.719   2.966   3.853 -0.2204  0.6846  0.1626
 1106ETH      O 3770   2.787   2.843   3.850  0.1371  0.1875 -0.5175
 1106ETH      H 3771   2.740   3.029   3.652  0.0271 -1.1152  0.5032
 1106ETH     H1 3772   2.888   3.072   3.747 -0.2715  2.4072  0.9617
 1106ETH     H2 3773   2.741   3.163   3.775 -1.8014 -0.5903 -0.2917
 1106ETH     H3 3774   2.727   3.004   3.956 -0.2128 -1.1763  0.8796
 1106ETH     H4 3775   2.611   2.953   3.839 -0.5649  0.0120  2.9481
 1106ETH     H5 3776   2.742   2.775   3.904  2.5799 -0.7281  0.5129
 1107ETH      C 3777   2.970   4.644   2.903  0.9941  0.0370 -0.6912
 1107ETH     C1 3778   3.007   4.503   2.859  0.4768 -0.2167 -0.6872
 1107ETH      O 3779   2.907   4.411   2.902  0.0243 -0.1621 -0.4533
 1107ETH      H 3780   2.867   4.636   2.940  1.5731 -0.8734  0.7904
 1107ETH     H1 3781   2.975   4.714   2.818 -1.4128  0.3021 -0.6898
 1107ETH     H2 3782   3.041   4.679   2.979  0.1856  0.8388 -0.2866
 1107ETH     H3 3783   3.003   4.502   2.749 -3.4944 -2.2645 -0.7199
 1107ETH     H4 3784   3.106   4.483   2.901  0.6056  1.5259 -0.0768
 1107ETH     H5 3785   2.912   4.334   2.844 -3.7614  0.3986 -1.8120
 1108ETH      C 3786   4.975   4.722   2.430 -0.0227  0.2356 -0.0290
 1108ETH     C1 3787   4.831   4.676   2.458 -0.8376  0.4179  0.1372
 1108ETH      O 3788   4.820   4.548   2.394  0.0721 -0.3046  0.0262
 1108ETH      H 3789   4.984   4.767   2.331 -1.4028  0.3394 -0.1277
 1108ETH     H1 3790   5.044   4.638   2.441  0.7437  0.9613  0.9999
 1108ETH     H2 3791   5.003   4.795   2.507 -2.0690 -0.3365  1.3477
 1108ETH     H3 3792   4.811   4.667   2.565 -0.5423  1.2555  0.2712
 1108ETH     H4 3793   4.759   4.748   2.418 -0.6623  0.0921 -0.7979
 1108ETH     H5 3794   4.820   4.574   2.301 -0.4330  1.5448  0.4993
 1109ETH      C 3795   1.795   0.198   2.798 -1.1815 -0.6258 -0.2509
 1109ETH     C1 3796   1.854   0.075   2.728  0.6157  0.2164 -0.7882
 1109ETH      O 3797   1.947   0.017   2.815  0.1409  0.2027  0.0254
 1109ETH      H 3798   1.856   0.248   2.874 -3.7017  1.7383  0.3746
 1109ETH     H1 3799   1.697   0.186   2.846 -1.0031  0.1728  0.3379
 1109ETH     H2 3800   1.771   0.276   2.725 -0.6843  0.7827  1.0437
 1109ETH     H3 3801   1.770   0.006   2.710 -0.2981  0.8844  0.7224
 1109ETH     H4 3802   1.894   0.108   2.631 -1.2961  1.0908 -1.3343
 1109ETH     H5 3803   2.035   0.050   2.791  0.6202 -1.9497 -1.4165
 1110ETH      C 3804   1.934   1.491   3.292  0.3794 -0.1650  0.1793
 1110ETH     C1 3805   1.908   1.433   3.152 -0.2711 -0.0499  0.4682
 1110ETH      O 3806   1.970   1.306   3.140 -0.2553  0.5757 -0.3905
 1110ETH      H 3807   1.888   1.589   3.306  0.7730 -0.3185  3.2772
 1110ETH     H1 3808   2.041   1.487   3.316  0.3027 -1.5671  0.4052
 1110ETH     H2 3809   1.904   1.425   3.374  1.7509 -2.5347 -1.0887
 1110ETH     H3 3810   1.799   1.431   3.145 -0.5849  1.8122  3.2297
 1110ETH     H4 3811   1.958   1.493   3.075 -2.3803 -1.2633 -2.0240
 1110ETH     H5 3812   1.975   1.280   3.047 -0.0576 -1.0521  0.0395
 1111ETH      C 3813   3.123   4.441   4.516 -0.6432 -0.1265 -0.5047
 1111ETH     C1 3814   3.146   4.518   4.388  0.0240 -0.4889  0.3715
 1111ETH      O 3815   3.089   4.466   4.271  0.0410 -0.0008 -0.5067
 1111ETH      H 3816   3.015   4.429   4.534  0.0377 -1.6023  3.8787
 1111ETH     H1 3817   3.163   4.501   4.598 -1.4762 -0.3902  0.1139
 1111ETH     H2 3818   3.178   4.346   4.515 -1.4398 -0.6135  0.1816
 1111ETH     H3 3819   3.105   4.617   4.410 -0.4638 -0.4650 -0.6285
 1111ETH     H4 3820   3.252   4.541   4.371  0.2670 -1.0924  0.9942
 1111ETH     H5 3821   3.146   4.389   4.252  1.2091  0.4767  0.9141
 1112ETH      C 3822   2.108   4.670   1.174 -0.2281  0.2975  0.0856
 1112ETH     C1 3823   2.118   4.523   1.220  0.1956 -0.8680 -0.4926
 1112ETH      O 3824   2.014   4.484   1.306 -0.4710 -0.5284 -0.1806
 1112ETH      H 3825   2.064   4.728   1.256  0.2472  1.7299 -0.6399
 1112ETH     H1 3826   2.040   4.673   1.088 -1.5154  1.1787  1.0809
 1112ETH     H2 3827   2.203   4.713   1.142 -0.2579  1.5776  1.5843
 1112ETH     H3 3828   2.114   4.454   1.134 -3.7521 -1.2307 -0.2034
 1112ETH     H4 3829   2.220   4.516   1.260 -0.2622  3.4082  1.9729
 1112ETH     H5 3830   1.982   4.567   1.346  0.2099 -0.5905  0.5229
 1113ETH      C 3831   2.405   0.653   2.849  0.2002 -0.0446  0.1716
 1113ETH     C1 3832   2.485   0.534   2.906 -0.0689  0.3724  0.4093
 1113ETH      O 3833   2.426   0.420   2.858 -0.2073 -0.0791  0.3694
 1113ETH      H 3834   2.302   0.657   2.886  0.2875 -3.0380  0.9829
 1113ETH     H1 3835   2.413   0.647   2.740  1.2156 -0.3041  0.2494
 1113ETH     H2 3836   2.463   0.742   2.876  0.4518 -0.2506  0.3120
 1113ETH     H3 3837   2.589   0.539   2.873  0.7615  1.6145  2.9562
 1113ETH     H4 3838   2.487   0.530   3.015 -0.6012 -2.3404  0.3747
 1113ETH     H5 3839   2.381   0.370   2.927  0.0832 -2.5067 -1.0933
 1114ETH      C 3840   2.640   0.136   2.060  0.8507  0.3710  0.1937
 1114ETH     C1 3841   2.683   0.275   2.100 -0.3805  0.5626  0.3150
 1114ETH      O 3842   2.805   0.307   2.025  0.1039  0.3795  0.6060
 1114ETH      H 3843   2.701   0.058   2.106  2.0837  1.0052 -0.3337
 1114ETH     H1 3844   2.624   0.135   1.952  1.6561 -2.5721  0.0338
 1114ETH     H2 3845   2.537   0.119   2.096  1.7553  0.1561  2.9216
 1114ETH     H3 3846   2.607   0.351   2.079  1.1726  1.9996 -0.3776
 1114ETH     H4 3847   2.701   0.280   2.208 -3.3915  0.0464  0.9188
 1114ETH     H5 3848   2.839   0.219   2.003 -0.1403  0.3269  0.4332
 1115ETH      C 3849   5.246   2.562   2.978 -0.3119  0.1336 -0.2016
 1115ETH     C1 3850   5.352   2.643   2.905  0.4496  0.8434 -0.0879
 1115ETH      O 3851   5.401   2.573   2.793 -0.2416 -1.1430 -0.0828
 1115ETH      H 3852   5.169   2.517   2.915 -0.6374  1.0656 -0.4815
 1115ETH     H1 3853   5.199   2.621   3.057 -1.2340 -0.7578 -0.0615
 1115ETH     H2 3854   5.286   2.476   3.034  0.5667  0.1235 -0.8210
 1115ETH     H3 3855   5.308   2.737   2.871  1.3632  1.5402  0.5940
 1115ETH     H4 3856   5.431   2.667   2.978  0.1776  2.6622 -0.3676
 1115ETH     H5 3857   5.454   2.639   2.745 -0.5224  0.6469  1.9350
 1116ETH      C 3858   2.811   3.574   0.660  0.0865 -0.3884  0.4133
 1116ETH     C1 3859   2.792   3.635   0.801  0.0165 -0.1191  0.2788
 1116ETH      O 3860   2.785   3.532   0.892 -0.0509  0.2963 -0.0992
 1116ETH      H 3861   2.836   3.655   0.591 -1.3002  0.2607  0.6371
 1116ETH     H1 3862   2.718   3.530   0.623  0.6518  0.8750 -2.8394
 1116ETH     H2 3863   2.896   3.505   0.651 -0.8999 -1.3875 -1.9594
 1116ETH     H3 3864   2.871   3.703   0.833 -0.5318  0.3157  0.7187
 1116ETH     H4 3865   2.698   3.691   0.805 -0.7279 -1.3312  0.5800
 1116ETH     H5 3866   2.876   3.508   0.919  1.4278  3.8225 -1.3798
 1117ETH      C 3867   2.394   2.905   5.529  0.1654  0.0069  0.6619
 1117ETH     C1 3868   2.416   2.890   5.686  0.4812  0.1102 -0.7985
 1117ETH      O 3869   2.321   2.799   5.733  0.3690  0.1415  0.2341
 1117ETH      H 3870   2.294   2.938   5.499  1.0675 -0.2152 -2.9836
 1117ETH     H1 3871   2.413   2.811   5.476 -1.8324  0.2891 -0.6492
 1117ETH     H2 3872   2.461   2.981   5.487  1.5320 -1.4915  0.0106
 1117ETH     H3 3873   2.514   2.842   5.701  1.6418  2.9186  1.5471
 1117ETH     H4 3874   2.400   2.984   5.739  1.7021 -0.0251 -0.1567
 1117ETH     H5 3875   2.285   2.760   5.652  2.8547  0.7113 -1.2320
 1118ETH      C 3876   1.679   1.164   3.595 -0.3374 -0.6169  0.0203
 1118ETH     C1 3877   1.594   1.263   3.674  0.2904  0.7433  0.7008
 1118ETH      O 3878   1.650   1.398   3.670  0.3630 -0.3076  0.4139
 1118ETH      H 3879   1.779   1.159   3.640 -0.5818 -0.4420  0.5839
 1118ETH     H1 3880   1.696   1.206   3.495  1.0927  1.4858  1.0913
 1118ETH     H2 3881   1.637   1.062   3.598  2.0289 -1.6457  0.7454
 1118ETH     H3 3882   1.503   1.246   3.614 -0.5868 -1.8878  2.5994
 1118ETH     H4 3883   1.587   1.224   3.776 -0.3191  0.5151  0.5812
 1118ETH     H5 3884   1.742   1.386   3.698  0.0545  0.8930  2.0734
 1119ETH      C 3885   1.337   1.768   2.431  0.5434 -0.4562  0.3362
 1119ETH     C1 3886   1.486   1.754   2.422  0.4425  0.5001  0.5779
 1119ETH      O 3887   1.540   1.865   2.355 -0.4231  0.6550  0.2090
 1119ETH      H 3888   1.292   1.737   2.336 -0.1286 -0.1569  0.5498
 1119ETH     H1 3889   1.300   1.864   2.468  0.5257 -0.6270  0.7588
 1119ETH     H2 3890   1.307   1.695   2.506  0.0304 -0.5741  0.0224
 1119ETH     H3 3891   1.535   1.747   2.520 -3.7246  1.4825  2.9773
 1119ETH     H4 3892   1.514   1.661   2.370  1.3474  2.4366 -2.7673
 1119ETH     H5 3893   1.491   1.893   2.276 -0.5263 -0.6265 -0.1964
 1120ETH      C 3894   4.436   2.227   1.366  0.1395 -0.3556 -0.1631
 1120ETH     C1 3895   4.378   2.293   1.497  0.3500 -0.2771  0.4210
 1120ETH      O 3896   4.482   2.374   1.541  0.7730 -0.4036 -0.4678
 1120ETH      H 3897   4.365   2.151   1.331  0.3011 -1.2273  1.3236
 1120ETH     H1 3898   4.524   2.172   1.401  0.5791  1.2157  1.3220
 1120ETH     H2 3899   4.461   2.302   1.290 -0.7700 -0.8220 -0.9465
 1120ETH     H3 3900   4.285   2.344   1.470  1.4442  0.4301 -2.3420
 1120ETH     H4 3901   4.350   2.225   1.579 -1.5916  3.9539  3.6368
 1120ETH     H5 3902   4.442   2.441   1.598 -1.3524 -1.8388 -0.1720
 1121ETH      C 3903   2.148   1.844   4.566  0.4715  0.3776  0.0966
 1121ETH     C1 3904   2.267   1.915   4.490  0.3868  0.0062  0.1919
 1121ETH      O 3905   2.389   1.843   4.527  0.2129 -0.5557  0.1441
 1121ETH      H 3906   2.178   1.805   4.664 -1.5086 -1.5539  0.0156
 1121ETH     H1 3907   2.104   1.757   4.516  2.4256 -0.7349  0.2225
 1121ETH     H2 3908   2.075   1.924   4.583 -0.1139 -0.6399  2.9430
 1121ETH     H3 3909   2.247   1.923   4.383  0.0820 -0.7589  0.1846
 1121ETH     H4 3910   2.272   2.018   4.527  1.0920  0.2102 -0.4349
 1121ETH     H5 3911   2.409   1.858   4.621  0.7102 -1.0039  0.1129
 1122ETH      C 3912   4.392   4.765   3.584  0.0315  0.1087  0.0271
 1122ETH     C1 3913   4.282   4.772   3.480  0.1482  0.4787  0.1120
 1122ETH      O 3914   4.343   4.777   3.353 -0.1580 -0.1011 -0.0486
 1122ETH      H 3915   4.339   4.759   3.680  1.6556  0.6513  0.9981
 1122ETH     H1 3916   4.461   4.850   3.579  2.3673 -1.7067 -0.9212
 1122ETH     H2 3917   4.457   4.683   3.551 -0.7234 -0.0192 -1.1801
 1122ETH     H3 3918   4.227   4.678   3.483  0.6302  0.1933  0.1321
 1122ETH     H4 3919   4.220   4.861   3.492  1.3289  1.2025  1.1187
 1122ETH     H5 3920   4.397   4.697   3.339 -0.4464 -0.3611  0.2937
 1123ETH      C 3921   1.355   2.728   2.356 -0.0870 -0.7325 -0.1151
 1123ETH     C1 3922   1.396   2.618   2.255  0.3426 -0.5223 -0.3011
 1123ETH      O 3923   1.504   2.551   2.316 -0.4117 -0.3537 -0.2979
 1123ETH      H 3924   1.437   2.801   2.351  0.0359 -0.8669 -0.0348
 1123ETH     H1 3925   1.352   2.691   2.459  0.6517  1.7656  0.8827
 1123ETH     H2 3926   1.258   2.772   2.330  0.0310 -0.7570 -0.5957
 1123ETH     H3 3927   1.311   2.550   2.239  0.2007  0.2087 -3.2239
 1123ETH     H4 3928   1.419   2.660   2.156 -0.1993  0.1918 -0.1371
 1123ETH     H5 3929   1.579   2.606   2.343  0.9390 -2.6581  0.8931
 1124ETH      C 3930   3.112   3.708   3.532 -0.0826 -0.2233  0.3653
 1124ETH     C1 3931   3.147   3.599   3.633  0.2354 -0.8345  0.3240
 1124ETH      O 3932   3.284   3.578   3.639  0.1521 -0.2996  0.2695
 1124ETH      H 3933   3.167   3.678   3.442  0.7321 -1.6499  1.2947
 1124ETH     H1 3934   3.154   3.801   3.570 -0.7233  1.6144 -3.0473
 1124ETH     H2 3935   3.005   3.718   3.510  0.3604  0.3436 -1.7642
 1124ETH     H3 3936   3.115   3.635   3.731 -2.2957 -3.2698  0.5115
 1124ETH     H4 3937   3.101   3.501   3.618  4.0258 -3.1813  2.4328
 1124ETH     H5 3938   3.314   3.556   3.548 -2.3462 -0.9901 -0.4556
 1125ETH      C 3939   4.585   1.382   3.334  0.2545 -0.0268  0.0390
 1125ETH     C1 3940   4.520   1.253   3.377  0.0221 -0.1144 -0.3663
 1125ETH      O 3941   4.594   1.146   3.326 -0.5641 -0.0458  0.1097
 1125ETH      H 3942   4.692   1.378   3.357 -0.0198 -0.3901  1.3388
 1125ETH     H1 3943   4.537   1.463   3.390  0.2448  0.8671 -1.2119
 1125ETH     H2 3944   4.571   1.398   3.227 -0.4677  0.5788  0.2128
 1125ETH     H3 3945   4.507   1.247   3.485 -1.3212  1.3200 -0.4105
 1125ETH     H4 3946   4.419   1.251   3.332  0.4619  0.1625 -1.4024
 1125ETH     H5 3947   4.532   1.075   3.303  0.0350 -0.0793 -1.5058
 1126ETH      C 3948   2.992   5.030   2.142  0.4573 -0.2944 -0.0559
 1126ETH     C1 3949   3.040   4.915   2.046  0.1840  0.5324  0.2294
 1126ETH      O 3950   2.932   4.820   2.034  0.0831  0.4108  0.4241
 1126ETH      H 3951   3.060   5.116   2.141  0.0838  0.0101  0.3012
 1126ETH     H1 3952   2.986   5.007   2.249  0.8289  1.6315  0.4258
 1126ETH     H2 3953   2.891   5.063   2.113  0.0563 -1.0521  0.4501
 1126ETH     H3 3954   3.067   4.963   1.951 -1.6482  0.9413 -0.1293
 1126ETH     H4 3955   3.128   4.861   2.082  0.4958  1.3970  0.8065
 1126ETH     H5 3956   2.851   4.874   2.028  0.9604  1.6143 -1.5854
 1127ETH      C 3957   5.371   4.085   3.398 -0.2944 -0.3717  0.6718
 1127ETH     C1 3958   5.462   4.040   3.519  1.1244  0.2165  0.2225
 1127ETH      O 3959   5.573   3.978   3.465 -0.4049 -0.2993 -0.2385
 1127ETH      H 3960   5.277   4.134   3.424  0.8943  2.0906  0.6729
 1127ETH     H1 3961   5.335   4.001   3.338  1.4857 -0.5760 -0.1719
 1127ETH     H2 3962   5.428   4.149   3.329 -0.6287 -0.6442  0.1352
 1127ETH     H3 3963   5.485   4.130   3.576 -2.2022  1.1545  0.2936
 1127ETH     H4 3964   5.409   3.973   3.588  0.0969  2.5942  1.8826
 1127ETH     H5 3965   5.545   3.892   3.429  1.4985 -1.0123 -0.1369
 1128ETH      C 3966   3.888   3.074   0.825 -0.1452 -0.1457  0.0644
 1128ETH     C1 3967   3.787   2.968   0.812 -1.1683 -0.7314  0.1806
 1128ETH      O 3968   3.778   2.893   0.929 -0.6099 -0.1817 -0.5836
 1128ETH      H 3969   3.865   3.155   0.895  1.8527  0.0050  0.5971
 1128ETH     H1 3970   3.886   3.132   0.731  0.5357 -1.0263 -0.5142
 1128ETH     H2 3971   3.992   3.041   0.834  0.0247  0.4133  0.1661
 1128ETH     H3 3972   3.698   3.015   0.770 -0.5251  0.2100 -0.1743
 1128ETH     H4 3973   3.824   2.898   0.736 -1.5875 -2.7325  1.7374
 1128ETH     H5 3974   3.864   2.851   0.949  0.8294  2.4229 -0.8784
 1129ETH      C 3975   4.792   2.344   2.067  0.1276  0.0182  0.2989
 1129ETH     C1 3976   4.735   2.409   1.940 -0.1320  0.5910 -0.3895
 1129ETH      O 3977   4.611   2.467   1.973  0.3480 -0.0945 -0.5394
 1129ETH      H 3978   4.718   2.280   2.115 -0.8487  0.5269 -0.4723
 1129ETH     H1 3979   4.806   2.419   2.146  0.0923  0.9906 -0.5805
 1129ETH     H2 3980   4.881   2.280   2.059  0.5129 -0.0107  3.5888
 1129ETH     H3 3981   4.801   2.488   1.902  1.8823 -0.8339  0.0356
 1129ETH     H4 3982   4.725   2.333   1.861 -0.7388  1.2134 -0.9333
 1129ETH     H5 3983   4.648   2.543   2.021 -0.2341 -0.1021 -0.0577
 1130ETH      C 3984   3.195   2.418   2.935 -0.5511 -0.6083  0.4715
 1130ETH     C1 3985   3.139   2.538   2.850  0.4765  0.6560  0.0679
 1130ETH      O 3986   3.116   2.480   2.725  0.2019  0.3477  0.4306
 1130ETH      H 3987   3.219   2.453   3.037  4.0832 -1.3945 -0.0942
 1130ETH     H1 3988   3.297   2.394   2.901 -0.2257  0.7520  0.4224
 1130ETH     H2 3989   3.124   2.335   2.936 -2.3823  0.8839  1.4759
 1130ETH     H3 3990   3.051   2.572   2.906  0.9422  1.8309  0.1185
 1130ETH     H4 3991   3.215   2.615   2.840 -0.3999  1.6527  0.8847
 1130ETH     H5 3992   3.198   2.495   2.674  0.1370  1.0810  0.5296
 1131ETH      C 3993   1.357   3.157   2.004  0.2418  0.1758  0.3011
 1131ETH     C1 3994   1.299   3.124   2.134  0.0729  0.4030  1.1528
 1131ETH      O 3995   1.394   3.074   2.225  0.0610  0.6329 -0.6304
 1131ETH      H 3996   1.424   3.080   1.964  0.4534 -0.2688  1.4763
 1131ETH     H1 3997   1.419   3.247   2.009  1.1949 -0.1984 -2.8522
 1131ETH     H2 3998   1.286   3.175   1.923  1.1469  1.0928 -0.3041
 1131ETH     H3 3999   1.246   3.216   2.163 -0.1937  0.3425  0.8686
 1131ETH     H4 4000   1.212   3.059   2.117 -0.3681  1.3742 -0.6594
 1131ETH     H5 4001   1.483   3.079   2.184 -0.2054 -1.1347 -1.5339
 1132ETH      C 4002   3.051   4.570   3.354 -0.0749  0.5118  0.3348
 1132ETH     C1 4003   3.198   4.571   3.335 -0.6103  0.1009 -0.2070
 1132ETH      O 4004   3.263   4.629   3.449 -0.0781  0.3101 -0.0494
 1132ETH      H 4005   3.007   4.527   3.262  0.6662 -0.6590  0.5087
 1132ETH     H1 4006   3.010   4.671   3.365  2.7709  2.0624 -1.8861
 1132ETH     H2 4007   3.022   4.503   3.436  0.5805 -0.4313 -0.1815
 1132ETH     H3 4008   3.237   4.469   3.318  0.0828  0.1966  0.7712
 1132ETH     H4 4009   3.213   4.625   3.241 -0.5156  1.3562  0.5109
 1132ETH     H5 4010   3.212   4.694   3.500  0.3250  0.9117 -0.3989
 1133ETH      C 4011   2.436   4.956   1.491 -0.5612  0.7922 -0.1358
 1133ETH     C1 4012   2.439   5.042   1.618 -0.0053  0.5328 -0.6482
 1133ETH      O 4013   2.390   4.960   1.723 -0.0217 -0.1857  0.4077
 1133ETH      H 4014   2.501   4.867   1.492  0.0313  1.1634 -1.8167
 1133ETH     H1 4015   2.483   5.009   1.407  1.4276 -0.1040  0.3423
 1133ETH     H2 4016   2.338   4.911   1.473  1.0484 -3.6049  0.8458
 1133ETH     H3 4017   2.540   5.083   1.631  0.2107 -0.2957  0.4804
 1133ETH     H4 4018   2.372   5.126   1.596  0.5515  1.5162  1.1242
 1133ETH     H5 4019   2.335   5.018   1.779 -0.9783 -1.3300  0.6892
 1134ETH      C 4020   3.195   0.893   1.506 -0.0022 -0.3361  0.2180
 1134ETH     C1 4021   3.275   0.848   1.636 -0.0327  0.7933  0.2115
 1134ETH      O 4022   3.173   0.801   1.722 -0.2287 -0.1623  0.1443
 1134ETH      H 4023   3.166   0.801   1.454  1.3534 -0.6425 -0.0359
 1134ETH     H1 4024   3.257   0.965   1.452 -1.5704  1.8573  1.1950
 1134ETH     H2 4025   3.100   0.943   1.528  0.1292  1.6099 -3.0196
 1134ETH     H3 4026   3.344   0.767   1.609 -0.2528  1.0497 -1.2460
 1134ETH     H4 4027   3.331   0.930   1.683 -0.3791  0.7699  0.6686
 1134ETH     H5 4028   3.179   0.861   1.799  0.0392  0.2371 -0.1871
 1135ETH      C 4029   3.689   3.506   2.568 -0.1742  0.6014  0.5068
 1135ETH     C1 4030   3.760   3.389   2.491 -0.0504 -0.2137  0.5285
 1135ETH      O 4031   3.773   3.422   2.355 -0.4902 -0.0068 -0.6907
 1135ETH      H 4032   3.661   3.483   2.672  1.2538 -0.6253  0.6515
 1135ETH     H1 4033   3.594   3.524   2.515 -1.0839 -2.3804  0.9661
 1135ETH     H2 4034   3.750   3.596   2.555  0.9079 -0.4467 -2.1946
 1135ETH     H3 4035   3.854   3.372   2.545  0.6493 -0.1569 -0.6443
 1135ETH     H4 4036   3.691   3.303   2.488 -1.3030  0.7789 -1.7110
 1135ETH     H5 4037   3.760   3.518   2.350  2.1359  0.4679  0.0859
 1136ETH      C 4038   2.887   3.291   3.457 -0.1911 -0.0146 -0.0468
 1136ETH     C1 4039   2.948   3.232   3.322 -0.3407 -0.4218 -0.1159
 1136ETH      O 4040   3.012   3.109   3.351 -0.0783  0.4431  0.0809
 1136ETH      H 4041   2.951   3.290   3.546  1.3127 -1.9514 -1.0985
 1136ETH     H1 4042   2.787   3.249   3.476 -0.3454  0.5977  0.5606
 1136ETH     H2 4043   2.864   3.393   3.424  0.0590  1.1337  2.9981
 1136ETH     H3 4044   2.858   3.224   3.259 -2.5204  2.8375  2.2292
 1136ETH     H4 4045   3.021   3.299   3.276  3.2312 -3.6660  0.3391
 1136ETH     H5 4046   3.022   3.068   3.263  1.4766  0.5908  0.1569
 1137ETH      C 4047   2.262   2.608   0.270 -0.1791  0.0090  1.1202
 1137ETH     C1 4048   2.303   2.712   0.375 -0.2361 -0.3260  0.0819
 1137ETH      O 4049   2.423   2.779   0.338  0.6281 -0.3670  0.5650
 1137ETH      H 4050   2.163   2.565   0.289 -0.5052  0.1451 -0.1697
 1137ETH     H1 4051   2.332   2.523   0.265 -0.1539  0.0903 -1.2577
 1137ETH     H2 4052   2.252   2.646   0.167 -0.8872 -0.0976  1.1433
 1137ETH     H3 4053   2.227   2.790   0.381  1.2167  1.4036 -2.2418
 1137ETH     H4 4054   2.319   2.651   0.466 -0.4289  0.2495  0.5088
 1137ETH     H5 4055   2.474   2.713   0.288  1.6594  1.0940 -0.4054
 1138ETH      C 4056   4.108   1.659   4.154 -0.0938  0.0174  0.4121
 1138ETH     C1 4057   4.128   1.522   4.097  0.5014  0.1729  0.4783
 1138ETH      O 4058   4.008   1.456   4.089  0.1339  0.1049 -0.2648
 1138ETH      H 4059   4.054   1.649   4.248 -0.3231 -2.3252  0.0971
 1138ETH     H1 4060   4.041   1.723   4.095 -1.3538  0.0677  1.8625
 1138ETH     H2 4061   4.205   1.709   4.167  0.0398 -0.3548  0.8621
 1138ETH     H3 4062   4.172   1.529   3.997 -1.9432 -2.3721 -0.9350
 1138ETH     H4 4063   4.195   1.471   4.168 -0.8999  0.2173  1.8946
 1138ETH     H5 4064   4.011   1.399   4.011 -0.9685 -2.2157  1.2887
 1139ETH      C 4065   2.500   3.128   3.305 -0.1481  0.0905  0.0054
 1139ETH     C1 4066   2.434   3.063   3.185 -0.1886  0.9279 -0.4423
 1139ETH      O 4067   2.510   2.953   3.160  0.1826  0.3512  0.4021
 1139ETH      H 4068   2.598   3.163   3.271  0.5012 -2.1567 -0.5724
 1139ETH     H1 4069   2.506   3.066   3.395 -0.8775  1.7754  1.2660
 1139ETH     H2 4070   2.439   3.215   3.333  0.8261  1.8961 -3.0344
 1139ETH     H3 4071   2.334   3.028   3.214  0.2089  0.3983  0.3263
 1139ETH     H4 4072   2.434   3.131   3.099  0.1970  0.2690 -0.9658
 1139ETH     H5 4073   2.528   2.892   3.234 -0.5524  2.0080  2.0289
 1140ETH      C 4074   3.994   4.474   1.558  0.3631 -0.3970 -0.4741
 1140ETH     C1 4075   3.980   4.470   1.403  0.3959  0.1943 -0.4126
 1140ETH      O 4076   3.955   4.333   1.367 -0.3807 -0.1511 -0.8684
 1140ETH      H 4077   4.083   4.422   1.595 -1.1500 -1.5521  1.7723
 1140ETH     H1 4078   3.903   4.435   1.605  0.2071 -0.2091 -0.6164
 1140ETH     H2 4079   3.983   4.577   1.593 -0.7696 -0.5536 -0.3326
 1140ETH     H3 4080   3.898   4.538   1.374 -1.0216 -1.0160  0.5850
 1140ETH     H4 4081   4.067   4.509   1.350  0.5478  0.6100  0.1354
 1140ETH     H5 4082   3.887   4.327   1.297 -1.9554  0.0657  0.5606
 1141ETH      C 4083   3.884   2.881   2.787  0.4887  0.6148  0.0775
 1141ETH     C1 4084   3.834   3.028   2.769 -0.6218 -0.2832 -0.0557
 1141ETH      O 4085   3.705   3.018   2.711 -0.3317 -0.2980  0.2085
 1141ETH      H 4086   3.825   2.833   2.866  0.9194  3.4216  2.2776
 1141ETH     H1 4087   3.987   2.875   2.825  0.7119  0.1585 -0.5794
 1141ETH     H2 4088   3.871   2.825   2.694  1.9942  0.7811 -0.2594
 1141ETH     H3 4089   3.846   3.074   2.868  1.2300 -0.5266 -0.1235
 1141ETH     H4 4090   3.901   3.088   2.705  0.7294 -0.1465  1.4214
 1141ETH     H5 4091   3.720   2.989   2.619 -2.7690 -1.4053  0.0717
 1142ETH      C 4092   4.529   4.085   1.437  0.1518  0.5086 -0.6946
 1142ETH     C1 4093   4.412   4.156   1.373  0.1441 -0.9415 -0.1119
 1142ETH      O 4094   4.360   4.252   1.470 -0.3122  0.3305  0.0822
 1142ETH      H 4095   4.605   4.150   1.483 -1.8297  0.7353  2.5806
 1142ETH     H1 4096   4.578   4.005   1.381  0.5987  1.5391 -1.8062
 1142ETH     H2 4097   4.487   4.035   1.525 -2.2370 -0.4557 -2.2909
 1142ETH     H3 4098   4.442   4.202   1.279  0.9688  1.1560  1.1122
 1142ETH     H4 4099   4.328   4.092   1.344 -1.6484  1.2627 -0.0662
 1142ETH     H5 4100   4.267   4.230   1.489 -0.1464  1.5198  2.6889
 1143ETH      C 4101   2.177   2.133   4.066 -0.6216 -0.0489  0.1286
 1143ETH     C1 4102   2.045   2.157   4.144 -0.5128 -0.2979 -0.1801
 1143ETH      O 4103   2.029   2.295   4.172  0.0338 -0.1142  0.3065
 1143ETH      H 4104   2.175   2.162   3.961  1.4073  0.8279  0.2926
 1143ETH     H1 4105   2.193   2.027   4.047 -0.2867  0.5891 -3.8884
 1143ETH     H2 4106   2.254   2.174   4.132 -1.9124  0.0818  1.6322
 1143ETH     H3 4107   1.962   2.123   4.080 -2.7363  0.3325  2.2128
 1143ETH     H4 4108   2.048   2.101   4.238 -0.1696 -0.0392 -0.0363
 1143ETH     H5 4109   1.938   2.319   4.147  0.1991 -0.3255 -0.5106
 1144ETH      C 4110   3.017   1.454   3.541 -0.4676  0.1752  0.8366
 1144ETH     C1 4111   2.885   1.459   3.463  0.0404  0.0571 -0.0848
 1144ETH      O 4112   2.904   1.472   3.328  0.0636  0.5226  0.0142
 1144ETH      H 4113   3.085   1.371   3.518  2.0802  1.5438  2.9000
 1144ETH     H1 4114   3.008   1.442   3.650  0.7317  0.0394  0.9394
 1144ETH     H2 4115   3.081   1.540   3.518  0.4642 -0.2404  1.7783
 1144ETH     H3 4116   2.832   1.364   3.476  3.7444 -2.0699  0.9171
 1144ETH     H4 4117   2.823   1.540   3.504 -2.0559 -1.3501 -0.3192
 1144ETH     H5 4118   2.991   1.431   3.310 -0.2051  0.5513 -1.4685
 1145ETH      C 4119   1.482   5.023   1.953  0.3285  0.4163  0.1139
 1145ETH     C1 4120   1.584   4.964   2.048 -0.1509 -0.5348  0.4136
 1145ETH      O 4121   1.682   4.885   1.979  0.2927  0.1907 -0.6307
 1145ETH      H 4122   1.529   5.080   1.871  0.2841  0.3807  0.0636
 1145ETH     H1 4123   1.426   5.096   2.013 -0.0687  0.5367 -0.3966
 1145ETH     H2 4124   1.423   4.940   1.912 -1.2492  0.8113  1.4611
 1145ETH     H3 4125   1.634   5.046   2.100  0.0577 -0.7786  0.6003
 1145ETH     H4 4126   1.540   4.901   2.126  0.5708 -1.6237 -0.0338
 1145ETH     H5 4127   1.737   4.839   2.044  0.1546  0.0869 -0.5861
 1146ETH      C 4128   1.575   3.123   2.701 -0.2969 -0.1279 -0.4512
 1146ETH     C1 4129   1.459   3.025   2.669  0.1278  0.4504 -0.2560
 1146ETH      O 4130   1.505   2.896   2.644 -0.1923  0.7031  0.4059
 1146ETH      H 4131   1.661   3.076   2.751  1.0910 -0.2862 -2.8536
 1146ETH     H1 4132   1.527   3.195   2.769 -0.3530  0.6095 -1.2566
 1146ETH     H2 4133   1.613   3.168   2.609 -0.6396  0.4911 -0.2975
 1146ETH     H3 4134   1.385   3.027   2.750  1.7562  2.2819  1.2792
 1146ETH     H4 4135   1.411   3.073   2.582  0.3534  0.0822 -0.5886
 1146ETH     H5 4136   1.564   2.904   2.567 -1.1121 -0.2212 -0.4329
 1147ETH      C 4137   2.741   2.204   5.210 -0.7037  0.2837 -0.3278
 1147ETH     C1 4138   2.605   2.147   5.151 -0.4767 -0.1317 -0.2139
 1147ETH      O 4139   2.615   2.186   5.016  0.2844  0.1588 -0.3289
 1147ETH      H 4140   2.729   2.203   5.319  1.4723  1.5774 -0.0112
 1147ETH     H1 4141   2.766   2.306   5.177  2.9008 -0.2952  0.2280
 1147ETH     H2 4142   2.829   2.149   5.173 -0.4791  0.1475  0.4022
 1147ETH     H3 4143   2.596   2.039   5.162  2.6705 -0.3539  1.5353
 1147ETH     H4 4144   2.512   2.188   5.191  0.0282  0.9224 -0.0946
 1147ETH     H5 4145   2.707   2.177   4.986  0.7475  0.1471  1.0316
 1148ETH      C 4146   3.958   4.051   4.560 -0.0841  0.1017 -1.2173
 1148ETH     C1 4147   3.916   3.974   4.430 -0.5227 -0.2367 -0.1743
 1148ETH      O 4148   3.813   4.043   4.366  0.2821  0.5218  0.0834
 1148ETH      H 4149   3.878   4.044   4.635 -0.4169  1.2394 -1.4489
 1148ETH     H1 4150   3.978   4.156   4.535  2.1390  0.6912  2.2966
 1148ETH     H2 4151   4.055   4.010   4.593  0.8458  3.7195  1.2140
 1148ETH     H3 4152   4.010   3.976   4.372  0.7798 -1.1681  1.8186
 1148ETH     H4 4153   3.892   3.869   4.448 -0.4177 -0.0346  1.2754
 1148ETH     H5 4154   3.794   3.989   4.287 -1.2183  1.2266 -0.0813
 1149ETH      C 4155   2.074   4.501   2.578 -0.1283  0.9725  0.1093
 1149ETH     C1 4156   2.081   4.349   2.567 -0.1262 -0.1177 -0.6235
 1149ETH      O 4157   2.216   4.310   2.566  0.1248  0.0106  0.1465
 1149ETH      H 4158   2.130   4.549   2.497  1.2195  0.7635  0.8858
 1149ETH     H1 4159   2.120   4.537   2.671 -1.6785  1.5202  0.6826
 1149ETH     H2 4160   1.973   4.542   2.581 -0.9127 -0.7843 -0.4445
 1149ETH     H3 4161   2.027   4.291   2.643  0.0256 -0.0663 -0.4774
 1149ETH     H4 4162   2.035   4.332   2.469 -0.6252  1.8684 -0.7833
 1149ETH     H5 4163   2.255   4.315   2.655  0.4668 -0.3917  0.0218
 1150ETH      C 4164   3.367   3.470   0.800  0.6132  0.2651  0.5499
 1150ETH     C1 4165   3.347   3.427   0.650 -0.1279 -0.0791  0.2909
 1150ETH      O 4166   3.271   3.308   0.636 -0.0447 -0.4068 -0.1770
 1150ETH      H 4167   3.418   3.567   0.808 -0.6074  0.9656  0.2018
 1150ETH     H1 4168   3.423   3.392   0.852 -1.1863 -1.2444  0.3406
 1150ETH     H2 4169   3.273   3.486   0.855  0.8242  0.2794  0.9072
 1150ETH     H3 4170   3.309   3.504   0.581  0.5355  0.0677  0.0848
 1150ETH     H4 4171   3.439   3.419   0.590  0.8121  1.7510  1.4186
 1150ETH     H5 4172   3.264   3.294   0.540 -0.0806  1.8897 -0.5722
 1151ETH      C 4173   1.516   4.454   4.125  1.1954 -0.2276 -0.2593
 1151ETH     C1 4174   1.551   4.365   4.246 -0.4566  0.5019  0.0774
 1151ETH      O 4175   1.597   4.235   4.203 -0.2648 -0.2689 -0.1992
 1151ETH      H 4176   1.482   4.553   4.159 -1.9777 -0.6459 -1.8352
 1151ETH     H1 4177   1.436   4.400   4.072  1.6362  0.6883 -1.9382
 1151ETH     H2 4178   1.599   4.463   4.054  2.7456 -1.7069  1.2822
 1151ETH     H3 4179   1.625   4.415   4.310 -0.4877 -1.1365  1.4738
 1151ETH     H4 4180   1.472   4.362   4.322  1.5678  0.2124  2.2986
 1151ETH     H5 4181   1.548   4.221   4.120 -1.2175  2.9400 -0.2943
 1152ETH      C 4182   3.457   2.062   4.625  0.5071 -0.6338  0.2940
 1152ETH     C1 4183   3.318   2.120   4.631 -0.3253 -0.0878 -0.3961
 1152ETH      O 4184   3.325   2.259   4.672  0.1620 -0.0324  0.1590
 1152ETH      H 4185   3.523   2.122   4.561  2.1791  0.9237  3.2666
 1152ETH     H1 4186   3.446   1.955   4.606 -0.2673 -0.4791 -0.1718
 1152ETH     H2 4187   3.492   2.081   4.727 -0.1414  0.1194  0.3834
 1152ETH     H3 4188   3.270   2.117   4.533 -1.6589 -1.5198  0.2547
 1152ETH     H4 4189   3.261   2.059   4.703  0.4367 -0.1067  0.2123
 1152ETH     H5 4190   3.378   2.309   4.607 -1.8986  0.9537 -0.9063
 1153ETH      C 4191   2.053   4.710   3.815  0.8619 -0.2181  0.3587
 1153ETH     C1 4192   2.067   4.587   3.720  0.1620  0.0412  0.0304
 1153ETH      O 4193   2.196   4.604   3.650 -0.2471  0.7263 -0.3598
 1153ETH      H 4194   2.119   4.699   3.902 -0.0049 -1.5848  0.8832
 1153ETH     H1 4195   1.953   4.727   3.856 -0.0881  1.7415 -2.4417
 1153ETH     H2 4196   2.078   4.802   3.762 -0.4071 -0.0434  0.0367
 1153ETH     H3 4197   2.062   4.496   3.781 -0.5504  1.0401  1.5141
 1153ETH     H4 4198   1.989   4.597   3.644  1.9095  0.3970 -1.8193
 1153ETH     H5 4199   2.184   4.662   3.573  1.5606 -0.4854 -1.6543
 1154ETH      C 4200   4.554   0.321   3.136 -1.0549 -0.5965  0.2328
 1154ETH     C1 4201   4.459   0.437   3.180  0.2222 -0.1261 -0.2597
 1154ETH      O 4202   4.326   0.417   3.133  0.1047  0.8226  0.0122
 1154ETH      H 4203   4.534   0.293   3.031 -0.9486  0.7105 -0.1487
 1154ETH     H1 4204   4.536   0.226   3.188 -0.2553 -1.0846 -0.3401
 1154ETH     H2 4205   4.659   0.351   3.137 -1.2345  0.0542 -0.0721
 1154ETH     H3 4206   4.454   0.440   3.290 -1.9445 -1.7773 -0.2324
 1154ETH     H4 4207   4.498   0.536   3.153  0.5893  0.0948  1.0016
 1154ETH     H5 4208   4.299   0.328   3.162  0.0980  0.9820  0.5037
 1155ETH      C 4209   3.860   2.057   3.889 -0.1856 -0.3542  0.7709
 1155ETH     C1 4210   3.866   2.186   3.799  0.8508  0.2769 -0.7162
 1155ETH      O 4211   3.993   2.205   3.732  0.3564  0.3313  0.9367
 1155ETH      H 4212   3.935   2.053   3.969  0.3912  0.5265  0.2948
 1155ETH     H1 4213   3.876   1.969   3.824  0.4685  1.1711 -1.2534
 1155ETH     H2 4214   3.756   2.042   3.920 -1.2310  2.1295 -1.1489
 1155ETH     H3 4215   3.784   2.192   3.726  1.4922 -1.6214 -1.6758
 1155ETH     H4 4216   3.855   2.275   3.863 -0.3711 -0.2593 -0.1398
 1155ETH     H5 4217   3.996   2.296   3.698  1.0222  0.2332  0.7156
 1156ETH      C 4218   3.516   1.452   2.315  0.4179 -0.7199  0.2003
 1156ETH     C1 4219   3.526   1.464   2.471  0.0414  1.0907  0.0315
 1156ETH      O 4220   3.405   1.418   2.523  0.0718  0.0597  0.4248
 1156ETH      H 4221   3.610   1.482   2.268 -0.4317 -0.9014 -1.6978
 1156ETH     H1 4222   3.436   1.516   2.275 -0.4188 -1.5285  0.5253
 1156ETH     H2 4223   3.500   1.347   2.287 -0.4098 -0.6208  0.2709
 1156ETH     H3 4224   3.602   1.389   2.494 -1.0343 -1.1797 -3.1309
 1156ETH     H4 4225   3.557   1.558   2.517  1.9582  0.6708 -0.3218
 1156ETH     H5 4226   3.408   1.431   2.619 -0.4329 -0.8380  0.5708
 1157ETH      C 4227   3.997   1.124   2.523 -0.0477 -0.2109 -0.5428
 1157ETH     C1 4228   3.873   1.059   2.459  0.9495 -0.3013 -0.3780
 1157ETH      O 4229   3.819   0.961   2.548 -0.1922 -0.4709 -0.3033
 1157ETH      H 4230   4.031   1.212   2.468 -1.4600  0.7317  0.0255
 1157ETH     H1 4231   4.074   1.046   2.515 -1.4500 -1.8786  1.1645
 1157ETH     H2 4232   3.992   1.144   2.631  2.1914 -1.6486 -0.1002
 1157ETH     H3 4233   3.794   1.129   2.428  2.0822  0.6446 -1.2590
 1157ETH     H4 4234   3.912   1.008   2.369  0.4270 -1.8736  0.2585
 1157ETH     H5 4235   3.739   0.933   2.501 -0.6455 -0.9180  0.6901
 1158ETH      C 4236   0.324   2.102   3.753  0.6345  0.5618  1.2870
 1158ETH     C1 4237   0.173   2.113   3.730  0.3474  0.1674 -0.0134
 1158ETH      O 4238   0.132   2.247   3.752  0.1301  0.0574  0.5715
 1158ETH      H 4239   0.355   2.130   3.854 -0.7109 -2.2275  2.5989
 1158ETH     H1 4240   0.382   2.139   3.668 -0.8242  0.2701  0.1062
 1158ETH     H2 4241   0.346   1.995   3.749 -3.6596 -0.5039  0.3242
 1158ETH     H3 4242   0.147   2.073   3.631 -3.6551  0.4577  0.7612
 1158ETH     H4 4243   0.124   2.049   3.804 -0.5980 -1.8554 -2.2657
 1158ETH     H5 4244   0.185   2.301   3.692 -0.6790 -0.4277 -0.6307
 1159ETH      C 4245   2.298   4.055   1.465  0.3743  0.5442 -0.1062
 1159ETH     C1 4246   2.353   4.044   1.602 -0.8248 -1.0057 -0.5338
 1159ETH      O 4247   2.332   3.915   1.654 -0.0332 -0.0351  0.1619
 1159ETH      H 4248   2.289   4.156   1.424 -0.1499  1.1903  1.5217
 1159ETH     H1 4249   2.201   4.006   1.454  0.6908  0.0578 -0.8214
 1159ETH     H2 4250   2.357   4.002   1.390 -0.4081  0.3041 -0.5662
 1159ETH     H3 4251   2.455   4.083   1.609 -1.4501  0.6638 -0.3047
 1159ETH     H4 4252   2.308   4.113   1.674  0.5670  0.1210 -0.7060
 1159ETH     H5 4253   2.336   3.929   1.750  0.1309  1.8617 -0.0711
 1160ETH      C 4254   2.465   5.295   2.037 -0.7102 -0.4066  0.3921
 1160ETH     C1 4255   2.608   5.344   2.023 -0.2019 -0.3468  0.1813
 1160ETH      O 4256   2.610   5.489   2.043  0.0167 -0.8104 -0.7032
 1160ETH      H 4257   2.457   5.186   2.033 -0.2262 -0.4405  0.3095
 1160ETH     H1 4258   2.405   5.340   1.956 -1.5046 -1.5875  0.2980
 1160ETH     H2 4259   2.426   5.323   2.135  1.8333  1.4282  0.9762
 1160ETH     H3 4260   2.656   5.298   2.111 -1.7490  0.0476  1.2795
 1160ETH     H4 4261   2.664   5.301   1.940  2.4032 -4.9000  3.7713
 1160ETH     H5 4262   2.628   5.538   1.961 -2.7711  1.0462 -0.3508
 1161ETH      C 4263   2.412   2.447   5.172  0.0882 -0.0853 -0.4578
 1161ETH     C1 4264   2.391   2.483   5.025 -0.1982 -0.8492  0.0510
 1161ETH      O 4265   2.255   2.474   4.985 -0.0028 -0.6883 -0.4622
 1161ETH      H 4266   2.352   2.356   5.180 -1.7836  1.1106 -0.4544
 1161ETH     H1 4267   2.378   2.524   5.242 -0.7310  0.0004 -0.9438
 1161ETH     H2 4268   2.516   2.414   5.184  0.3940 -0.0153 -2.6092
 1161ETH     H3 4269   2.436   2.581   5.004  2.1320 -1.7891  0.3731
 1161ETH     H4 4270   2.435   2.417   4.949 -1.2178  1.3642 -2.6527
 1161ETH     H5 4271   2.240   2.517   4.899 -1.3866 -0.5891 -0.1801
 1162ETH      C 4272   0.146   3.516   2.367 -0.2885 -0.5594  0.6004
 1162ETH     C1 4273   0.028   3.418   2.381 -0.3655  0.4269 -0.5573
 1162ETH      O 4274   0.015   3.397   2.519  0.2157  0.2962 -0.1567
 1162ETH      H 4275   0.162   3.526   2.259 -0.0856  0.5431  0.7258
 1162ETH     H1 4276   0.243   3.479   2.402 -0.3699 -0.7802  0.5947
 1162ETH     H2 4277   0.118   3.612   2.412  0.3520 -0.0361 -0.0916
 1162ETH     H3 4278  -0.057   3.467   2.332 -2.2577 -1.5374  0.5984
 1162ETH     H4 4279   0.051   3.317   2.344  0.2840  0.7959 -1.1848
 1162ETH     H5 4280  -0.075   3.421   2.547  0.6295  0.4618  1.1063
 1163ETH      C 4281   2.205   0.052   2.120  0.5149  0.0940 -0.0330
 1163ETH     C1 4282   2.254   0.194   2.172  0.1874  0.6355  0.8729
 1163ETH      O 4283   2.309   0.186   2.303 -0.3063  0.8168 -0.3871
 1163ETH      H 4284   2.269  -0.024   2.165  0.9313  1.6157  2.0911
 1163ETH     H1 4285   2.217   0.042   2.011  3.9981 -1.1093  0.3473
 1163ETH     H2 4286   2.100   0.037   2.150 -0.1248  0.8090 -1.7842
 1163ETH     H3 4287   2.331   0.233   2.105 -1.5038  0.9589 -0.9738
 1163ETH     H4 4288   2.163   0.254   2.167 -0.8956 -0.8342  1.9381
 1163ETH     H5 4289   2.236   0.200   2.365 -1.2745 -0.4669 -1.1860
 1164ETH      C 4290   0.510   1.828   2.882  0.6873 -0.8945 -0.9767
 1164ETH     C1 4291   0.436   1.955   2.850 -0.6819 -0.0224  0.4936
 1164ETH      O 4292   0.525   2.066   2.880 -0.0579 -0.0132 -0.1406
 1164ETH      H 4293   0.537   1.820   2.987 -1.3529 -1.6025 -0.4518
 1164ETH     H1 4294   0.604   1.832   2.825  2.0738 -0.0006  1.2518
 1164ETH     H2 4295   0.445   1.745   2.851 -1.2903 -0.8342  2.5049
 1164ETH     H3 4296   0.396   1.958   2.748  1.1680  1.7956 -0.2573
 1164ETH     H4 4297   0.352   1.962   2.920  0.4121 -1.3076  2.0136
 1164ETH     H5 4298   0.579   2.040   2.956 -0.9062 -1.7691 -0.0852
 1165ETH      C 4299   3.282   3.166   2.347  0.5816  0.0448  0.1972
 1165ETH     C1 4300   3.417   3.218   2.403 -0.2092  0.5929  0.1914
 1165ETH      O 4301   3.501   3.103   2.421 -0.0395 -0.2256 -0.1558
 1165ETH      H 4302   3.217   3.246   2.308 -0.1156 -0.5850  0.0502
 1165ETH     H1 4303   3.239   3.095   2.417 -0.7521 -1.8681 -2.3875
 1165ETH     H2 4304   3.298   3.107   2.256 -0.0624 -0.4059  0.3695
 1165ETH     H3 4305   3.461   3.283   2.326 -0.6791 -0.4043 -0.9391
 1165ETH     H4 4306   3.399   3.268   2.499 -1.5494  0.3537  0.0866
 1165ETH     H5 4307   3.476   3.035   2.356 -2.7990 -2.9256  3.2841
 1166ETH      C 4308   3.329   3.182   3.830  0.0651 -0.6144  0.0282
 1166ETH     C1 4309   3.337   3.183   3.675 -0.1469 -0.5225  0.2607
 1166ETH      O 4310   3.428   3.076   3.633 -0.1856  0.6025  0.2550
 1166ETH      H 4311   3.325   3.081   3.874  1.4154  0.2342  2.2754
 1166ETH     H1 4312   3.240   3.232   3.872  0.3282 -0.2769  0.1896
 1166ETH     H2 4313   3.421   3.222   3.875  0.3736  0.0659 -1.1626
 1166ETH     H3 4314   3.239   3.148   3.641 -0.3821 -0.3906  0.8014
 1166ETH     H4 4315   3.377   3.272   3.626  0.4194 -1.7451 -1.6438
 1166ETH     H5 4316   3.382   2.999   3.597  3.8368 -0.8850 -2.4157
 1167ETH      C 4317   2.706   3.761   2.709  0.3822 -0.6117  1.1054
 1167ETH     C1 4318   2.795   3.643   2.709  0.1688 -0.0865 -0.1914
 1167ETH      O 4319   2.764   3.573   2.595 -0.3180 -0.1783  0.5150
 1167ETH      H 4320   2.738   3.835   2.635 -1.8082 -0.4544  0.2358
 1167ETH     H1 4321   2.695   3.794   2.813 -0.0455 -1.8134  1.4617
 1167ETH     H2 4322   2.602   3.729   2.691 -0.0058  0.5683  1.1963
 1167ETH     H3 4323   2.895   3.688   2.698  0.3988  0.0319  1.9481
 1167ETH     H4 4324   2.794   3.581   2.799  0.4457  0.1055 -0.0538
 1167ETH     H5 4325   2.674   3.536   2.605 -0.3205 -0.1599  0.5607
 1168ETH      C 4326   1.533   2.224   2.105  0.7934  0.5229  0.7929
 1168ETH     C1 4327   1.475   2.194   2.248 -0.4183  0.8817  0.1918
 1168ETH      O 4328   1.389   2.084   2.233  0.0588  0.8800 -0.6818
 1168ETH      H 4329   1.583   2.135   2.064  0.7921  1.0628 -0.4419
 1168ETH     H1 4330   1.601   2.310   2.106 -0.9471  2.0056 -0.6382
 1168ETH     H2 4331   1.457   2.257   2.033  0.4487 -2.8812 -0.6124
 1168ETH     H3 4332   1.559   2.174   2.316  0.8135 -1.3123 -1.8222
 1168ETH     H4 4333   1.418   2.277   2.292 -0.2119  0.0850  2.0800
 1168ETH     H5 4334   1.312   2.098   2.291  0.4851 -1.4510  0.5669
 1169ETH      C 4335   2.596   1.678   4.858 -0.5796  0.4721 -0.2948
 1169ETH     C1 4336   2.635   1.821   4.841  0.1154  0.4698  0.4579
 1169ETH      O 4337   2.524   1.893   4.788  1.0251  0.1652 -0.0720
 1169ETH      H 4338   2.683   1.611   4.866 -2.0053 -1.4240  0.0275
 1169ETH     H1 4339   2.536   1.646   4.772 -0.9651  1.6011 -0.4578
 1169ETH     H2 4340   2.540   1.654   4.948 -0.8967  0.3139 -0.5309
 1169ETH     H3 4341   2.663   1.856   4.941  0.4151 -1.3516  1.0454
 1169ETH     H4 4342   2.723   1.826   4.776 -0.6165 -0.4110 -0.6359
 1169ETH     H5 4343   2.538   1.985   4.817  0.7919  0.4073 -0.7127
 1170ETH      C 4344   5.181   2.557   2.423 -0.5687 -0.0919 -0.4770
 1170ETH     C1 4345   5.136   2.694   2.494 -0.0384 -0.0572  0.2158
 1170ETH      O 4346   5.086   2.790   2.396 -0.2908 -0.4696 -0.4502
 1170ETH      H 4347   5.252   2.588   2.346  1.9165 -2.0739  0.8630
 1170ETH     H1 4348   5.098   2.507   2.373  0.1626 -0.1405 -1.6680
 1170ETH     H2 4349   5.226   2.496   2.502  0.1039 -1.3498 -1.7912
 1170ETH     H3 4350   5.052   2.674   2.562 -1.2344  0.1404 -1.1739
 1170ETH     H4 4351   5.226   2.730   2.546  0.2732 -1.3376  0.5923
 1170ETH     H5 4352   5.053   2.869   2.442  1.7572  1.1163 -1.5447
 1171ETH      C 4353   4.731   1.129   3.015 -0.1438  0.6856 -0.0574
 1171ETH     C1 4354   4.654   1.236   2.949 -0.3204 -0.0957  0.4761
 1171ETH      O 4355   4.729   1.359   2.930  0.4649  0.4433  0.3363
 1171ETH      H 4356   4.762   1.147   3.119 -2.1058 -0.6302  0.8099
 1171ETH     H1 4357   4.819   1.091   2.962  0.3262 -0.3157  1.3650
 1171ETH     H2 4358   4.662   1.044   3.021 -0.4346  0.9909  1.4928
 1171ETH     H3 4359   4.625   1.201   2.850 -1.7320  0.8203  0.5369
 1171ETH     H4 4360   4.563   1.254   3.007 -1.2264 -1.7440 -0.3535
 1171ETH     H5 4361   4.794   1.369   3.002  1.1481 -0.7424 -0.0945
 1172ETH      C 4362   5.189   3.401   3.294  0.3478  0.2332 -0.3382
 1172ETH     C1 4363   5.092   3.411   3.171 -0.0364  0.0470  0.2707
 1172ETH      O 4364   5.074   3.546   3.127  0.4924 -0.1984 -0.1683
 1172ETH      H 4365   5.140   3.412   3.392  0.4291  1.9793 -0.4692
 1172ETH     H1 4366   5.269   3.476   3.295  0.4011  0.1761  0.0781
 1172ETH     H2 4367   5.249   3.309   3.287  1.2982  0.7249  0.9320
 1172ETH     H3 4368   5.141   3.351   3.093 -0.6879 -1.1872  0.7870
 1172ETH     H4 4369   4.994   3.369   3.195  0.7476 -1.9176  0.2221
 1172ETH     H5 4370   5.074   3.604   3.205  0.6204 -2.1332  1.3643
 1173ETH      C 4371   2.528   4.657   3.530 -0.1853 -0.4737  0.1113
 1173ETH     C1 4372   2.607   4.585   3.429 -0.1143  0.3083 -0.4999
 1173ETH      O 4373   2.524   4.525   3.325 -0.0559  0.4123 -0.5520
 1173ETH      H 4374   2.467   4.585   3.586  1.4269 -1.7400  0.3149
 1173ETH     H1 4375   2.456   4.724   3.480  1.0991  0.6846 -0.2557
 1173ETH     H2 4376   2.591   4.721   3.592 -2.6120  1.5758  0.6389
 1173ETH     H3 4377   2.682   4.649   3.381 -1.0510  2.3396  0.6166
 1173ETH     H4 4378   2.670   4.504   3.468  2.1279  1.6750 -1.0808
 1173ETH     H5 4379   2.584   4.503   3.252  0.2292 -2.3755  0.4318
 1174ETH      C 4380   3.533   3.180   1.052 -0.8476 -0.1989  0.6208
 1174ETH     C1 4381   3.466   3.201   1.195 -0.2583 -0.3762  0.8884
 1174ETH      O 4382   3.455   3.065   1.255 -0.3402 -0.1114 -0.2383
 1174ETH      H 4383   3.635   3.141   1.060 -1.0488 -1.4134 -1.7862
 1174ETH     H1 4384   3.545   3.279   1.007  1.6409 -1.1685 -1.0245
 1174ETH     H2 4385   3.480   3.109   0.987 -0.3777  0.1496 -0.1517
 1174ETH     H3 4386   3.530   3.272   1.249 -1.3084  0.2102  1.3910
 1174ETH     H4 4387   3.367   3.248   1.189 -0.5459 -0.8543  1.7725
 1174ETH     H5 4388   3.421   3.070   1.346 -0.3387 -0.8625 -0.1923
 1175ETH      C 4389   3.812   5.060   1.112  0.2421  0.1815  0.0103
 1175ETH     C1 4390   3.802   5.055   1.261 -0.3127 -0.1629  0.1051
 1175ETH      O 4391   3.688   5.123   1.307 -0.4918 -0.3726  0.3923
 1175ETH      H 4392   3.898   4.997   1.089 -0.4326 -0.4063 -0.9779
 1175ETH     H1 4393   3.823   5.162   1.072  0.8333 -0.3519 -1.2108
 1175ETH     H2 4394   3.721   5.017   1.069  0.7722 -1.2190  0.2598
 1175ETH     H3 4395   3.802   4.947   1.280 -0.8513 -0.4891 -1.5826
 1175ETH     H4 4396   3.891   5.098   1.308 -2.0786  3.0134  0.8064
 1175ETH     H5 4397   3.690   5.217   1.281 -2.3607 -0.0910  1.1302
 1176ETH      C 4398   2.582   3.627   3.418 -0.5541  0.0289 -0.0705
 1176ETH     C1 4399   2.715   3.704   3.446  0.3653  0.5460  0.1376
 1176ETH      O 4400   2.684   3.836   3.481  0.4240 -0.3161 -0.5331
 1176ETH      H 4401   2.538   3.665   3.325 -1.6699  1.8203  1.1335
 1176ETH     H1 4402   2.502   3.640   3.491 -1.7581 -3.8070 -0.5016
 1176ETH     H2 4403   2.593   3.518   3.416 -1.0223 -0.0700  1.7732
 1176ETH     H3 4404   2.761   3.658   3.534 -1.6426 -1.6099  0.1450
 1176ETH     H4 4405   2.780   3.704   3.358 -0.5868  0.8435 -0.5844
 1176ETH     H5 4406   2.648   3.833   3.571  0.0086 -0.4436 -0.6993
 1177ETH      C 4407   1.724   1.552   2.179  0.0253  0.0193  0.2104
 1177ETH     C1 4408   1.629   1.450   2.115 -0.7096  0.2690 -0.2802
 1177ETH      O 4409   1.642   1.326   2.179  0.4992 -0.0775  0.3814
 1177ETH      H 4410   1.822   1.535   2.133  1.0433 -1.4989  2.7551
 1177ETH     H1 4411   1.726   1.537   2.288  1.0272 -0.7489  0.1064
 1177ETH     H2 4412   1.689   1.656   2.170  2.6702  1.2381  2.3391
 1177ETH     H3 4413   1.531   1.498   2.128 -0.4690  0.8521 -0.5895
 1177ETH     H4 4414   1.660   1.443   2.010 -0.4374 -0.6401 -0.1485
 1177ETH     H5 4415   1.606   1.334   2.269 -0.9778 -0.7191 -0.1167
 1178ETH      C 4416   3.464   2.080   3.310 -0.2150 -0.4051  0.1213
 1178ETH     C1 4417   3.440   2.220   3.257  0.3923  0.5106  0.2531
 1178ETH      O 4418   3.298   2.252   3.249 -0.1651 -0.3640 -0.3832
 1178ETH      H 4419   3.405   2.059   3.399 -0.0877 -0.2569  0.2402
 1178ETH     H1 4420   3.571   2.072   3.334  0.1727 -1.9963 -1.7657
 1178ETH     H2 4421   3.434   2.021   3.222  0.8711  0.3687 -0.8063
 1178ETH     H3 4422   3.492   2.282   3.332 -1.7438  0.6891  1.6947
 1178ETH     H4 4423   3.498   2.233   3.165  1.9691  2.1623  1.4059
 1178ETH     H5 4424   3.240   2.174   3.243 -1.2959  0.5018 -0.9845
 1179ETH      C 4425   3.162   0.467   1.364 -0.2710 -0.5160  0.2585
 1179ETH     C1 4426   3.289   0.407   1.433 -0.0607  0.1589  0.3425
 1179ETH      O 4427   3.248   0.315   1.534  0.0522 -0.3057  0.1524
 1179ETH      H 4428   3.192   0.527   1.277  1.2565 -1.5476  0.0229
 1179ETH     H1 4429   3.115   0.538   1.433  1.3129  1.7743 -0.8775
 1179ETH     H2 4430   3.087   0.393   1.334 -0.1569 -0.2129 -0.8058
 1179ETH     H3 4431   3.346   0.355   1.356 -0.2243  0.3481  0.0936
 1179ETH     H4 4432   3.345   0.490   1.479  1.3873 -1.6033  1.9494
 1179ETH     H5 4433   3.225   0.365   1.615  1.4911  0.0892  0.3507
 1180ETH      C 4434   2.440   2.744   3.863  0.4968 -0.4897 -0.2024
 1180ETH     C1 4435   2.526   2.629   3.911  0.3129  0.3196 -1.0141
 1180ETH      O 4436   2.618   2.672   4.012 -0.2001  0.2743  0.4682
 1180ETH      H 4437   2.334   2.722   3.848 -0.3657  1.4794  2.3094
 1180ETH     H1 4438   2.476   2.784   3.767  0.5926  0.2266  0.1296
 1180ETH     H2 4439   2.443   2.818   3.944  0.3300 -0.7301  0.0214
 1180ETH     H3 4440   2.459   2.558   3.961 -0.0100 -0.2087 -2.1647
 1180ETH     H4 4441   2.574   2.570   3.833  1.1556 -1.7592  0.9908
 1180ETH     H5 4442   2.647   2.593   4.061  2.3604  1.7044  1.4915
 1181ETH      C 4443   3.731   1.368   3.424  0.3619 -0.2359 -0.5499
 1181ETH     C1 4444   3.833   1.376   3.307 -0.0954 -0.4609  0.0251
 1181ETH      O 4445   3.760   1.322   3.191 -0.0698 -0.0717  0.1542
 1181ETH      H 4446   3.780   1.408   3.513  1.2441 -1.2863 -0.5380
 1181ETH     H1 4447   3.703   1.264   3.444 -0.0079  0.4516  3.0631
 1181ETH     H2 4448   3.634   1.415   3.402 -0.4803 -0.9991  1.3261
 1181ETH     H3 4449   3.862   1.482   3.296  2.1534 -0.9620  0.5904
 1181ETH     H4 4450   3.925   1.321   3.328 -1.1226 -1.7365  1.3657
 1181ETH     H5 4451   3.759   1.224   3.195 -1.6801 -0.0729  0.7396
 1182ETH      C 4452   3.184   1.738   3.900 -0.1447  0.1890 -0.9487
 1182ETH     C1 4453   3.071   1.726   3.994  1.1823  0.4625 -0.3572
 1182ETH      O 4454   2.992   1.604   3.978  0.0351 -0.2658  0.4535
 1182ETH      H 4455   3.238   1.643   3.889  0.2058  0.4051 -1.1259
 1182ETH     H1 4456   3.251   1.812   3.944  1.5741 -0.1680 -2.8010
 1182ETH     H2 4457   3.155   1.774   3.801  1.1857 -2.0469 -2.2385
 1182ETH     H3 4458   3.115   1.735   4.094  2.0323 -1.4542 -0.5130
 1182ETH     H4 4459   3.002   1.810   3.986  0.6074 -0.1674 -3.3013
 1182ETH     H5 4460   2.911   1.638   3.937  0.2640 -0.1279  0.1038
 1183ETH      C 4461   2.404   4.207   3.189 -0.2542 -0.3677 -0.3281
 1183ETH     C1 4462   2.356   4.077   3.254 -0.0978  0.7317  0.3735
 1183ETH      O 4463   2.361   3.967   3.161 -0.1610 -0.2350 -0.2658
 1183ETH      H 4464   2.414   4.286   3.264  0.6088  0.0483 -0.8627
 1183ETH     H1 4465   2.331   4.227   3.110 -1.2634  0.3791  0.7590
 1183ETH     H2 4466   2.500   4.198   3.136 -0.8103 -0.8583 -1.2780
 1183ETH     H3 4467   2.425   4.065   3.338  1.4948  2.5428 -0.5932
 1183ETH     H4 4468   2.254   4.094   3.290  1.1516  1.3558  4.0631
 1183ETH     H5 4469   2.302   3.980   3.084 -1.0588 -1.1825  0.2428
 1184ETH      C 4470   3.684   0.482   1.968  0.0190 -0.0791 -0.1984
 1184ETH     C1 4471   3.691   0.447   2.121 -0.1403 -0.0337  0.2880
 1184ETH      O 4472   3.581   0.512   2.186 -0.6603  0.2729 -0.5638
 1184ETH      H 4473   3.761   0.431   1.909 -0.0001  0.5941 -0.8252
 1184ETH     H1 4474   3.685   0.591   1.954  2.0361  0.0807  0.8332
 1184ETH     H2 4475   3.592   0.440   1.925  0.5520 -1.3754 -0.1182
 1184ETH     H3 4476   3.667   0.340   2.125 -2.6970  0.4483 -0.0216
 1184ETH     H4 4477   3.785   0.474   2.170  0.5417 -0.7564 -0.5906
 1184ETH     H5 4478   3.500   0.470   2.154 -0.9769  0.4712 -0.0274
 1185ETH      C 4479   1.936   1.894   1.931  0.2364 -0.4731  0.7938
 1185ETH     C1 4480   1.896   1.977   2.053  0.3141 -0.2160  0.7221
 1185ETH      O 4481   1.952   1.922   2.171 -0.4035  0.8718 -0.0887
 1185ETH      H 4482   2.043   1.877   1.915  0.2676  0.9672 -0.7940
 1185ETH     H1 4483   1.897   1.924   1.833 -1.5513  1.5111  2.0211
 1185ETH     H2 4484   1.912   1.788   1.948 -1.4707 -0.4892 -1.3694
 1185ETH     H3 4485   1.927   2.081   2.040  0.7632 -0.2547  1.3848
 1185ETH     H4 4486   1.787   1.973   2.062  0.3705 -0.4069  1.3857
 1185ETH     H5 4487   1.890   1.949   2.241 -0.1752  0.4547  0.2748
 1186ETH      C 4488   5.017   2.244   2.970 -0.3397 -0.4675 -0.2124
 1186ETH     C1 4489   4.869   2.209   3.022  0.0648 -0.1596 -0.3176
 1186ETH      O 4490   4.776   2.241   2.917 -0.3613  0.2156 -0.5114
 1186ETH      H 4491   5.068   2.178   2.899 -0.7695 -2.0633  0.8990
 1186ETH     H1 4492   5.083   2.268   3.054  0.6804 -1.4166 -0.7078
 1186ETH     H2 4493   5.005   2.341   2.922 -2.2013 -0.0419  1.0111
 1186ETH     H3 4494   4.857   2.102   3.041 -0.5456 -0.0714 -0.1992
 1186ETH     H4 4495   4.845   2.263   3.115 -0.5209  0.8936 -1.0546
 1186ETH     H5 4496   4.791   2.337   2.907 -1.9754  0.5450 -0.0420
 1187ETH      C 4497   3.570   3.815   4.405  0.0073  0.4422 -0.2989
 1187ETH     C1 4498   3.431   3.777   4.467  0.1769  0.6578  0.0215
 1187ETH      O 4499   3.450   3.686   4.574  0.7812  0.5523 -0.0011
 1187ETH      H 4500   3.633   3.729   4.381 -0.3218 -0.9453  3.2097
 1187ETH     H1 4501   3.633   3.879   4.468  1.3619  2.0518 -3.0896
 1187ETH     H2 4502   3.560   3.885   4.321  2.7560  1.9246  0.4864
 1187ETH     H3 4503   3.384   3.870   4.502  0.8479  0.7770  0.6336
 1187ETH     H4 4504   3.370   3.735   4.386  0.1360  0.0574  0.3531
 1187ETH     H5 4505   3.525   3.628   4.553 -0.5037 -1.9423  1.7126
 1188ETH      C 4506   3.105   1.619   2.653  0.4986  0.2235  0.6111
 1188ETH     C1 4507   3.182   1.706   2.547  0.7295  0.2919 -0.4643
 1188ETH      O 4508   3.112   1.825   2.525 -0.3520 -0.1973 -0.2926
 1188ETH      H 4509   3.149   1.520   2.670  0.3007  0.4945  2.9666
 1188ETH     H1 4510   3.007   1.608   2.605  1.3452  2.5227 -1.8640
 1188ETH     H2 4511   3.101   1.675   2.747 -1.3433  0.4452  0.4380
 1188ETH     H3 4512   3.285   1.722   2.581  0.4481  1.0113  0.0804
 1188ETH     H4 4513   3.181   1.651   2.452 -0.7895  0.5150 -0.6014
 1188ETH     H5 4514   3.025   1.805   2.485 -0.5221 -1.5504  0.6687
 1189ETH      C 4515   5.435   3.355   1.931 -0.4843 -0.0314 -0.2131
 1189ETH     C1 4516   5.287   3.329   1.917  0.3721 -0.2242  1.0521
 1189ETH      O 4517   5.219   3.372   2.030 -0.4524  0.5719  0.0841
 1189ETH      H 4518   5.479   3.379   1.834  0.6769 -1.3619 -0.0521
 1189ETH     H1 4519   5.489   3.273   1.980  1.8813  0.6059 -1.6340
 1189ETH     H2 4520   5.454   3.437   2.001 -0.6635 -0.1995  0.0384
 1189ETH     H3 4521   5.250   3.403   1.846  1.4089 -0.1391  0.5742
 1189ETH     H4 4522   5.267   3.227   1.883  0.7059 -0.0851  0.4362
 1189ETH     H5 4523   5.222   3.469   2.032 -1.4198  0.6464 -1.2848
 1190ETH      C 4524   3.347   5.227   3.666 -0.7629  0.9720  0.1653
 1190ETH     C1 4525   3.273   5.341   3.599  0.4017 -0.2068 -0.8166
 1190ETH      O 4526   3.360   5.402   3.504  0.2284 -0.6231  0.1049
 1190ETH      H 4527   3.277   5.160   3.717 -2.1258 -1.3249 -4.2092
 1190ETH     H1 4528   3.427   5.255   3.735 -0.7087 -0.3937  0.6835
 1190ETH     H2 4529   3.385   5.168   3.581 -2.2250  1.0131 -0.5542
 1190ETH     H3 4530   3.182   5.300   3.555  0.7322 -1.1266 -0.6650
 1190ETH     H4 4531   3.241   5.417   3.671 -0.5507  0.1129 -1.5513
 1190ETH     H5 4532   3.433   5.342   3.483  1.0099  0.8509 -1.6389
 1191ETH      C 4533   0.283   3.775   2.638 -0.1414 -0.7027 -0.2236
 1191ETH     C1 4534   0.351   3.903   2.674 -0.0252 -0.5437 -0.6298
 1191ETH      O 4535   0.442   3.892   2.780 -0.7099 -0.0821  0.1719
 1191ETH      H 4536   0.259   3.788   2.532 -1.4693  0.5418  0.1871
 1191ETH     H1 4537   0.194   3.743   2.694  0.4991  0.5131  1.6026
 1191ETH     H2 4538   0.356   3.695   2.652  0.2085 -0.1382  1.4407
 1191ETH     H3 4539   0.411   3.936   2.588 -0.0103  0.3613 -0.2927
 1191ETH     H4 4540   0.279   3.983   2.696  1.6759  0.9671 -0.2675
 1191ETH     H5 4541   0.529   3.882   2.739 -0.4652 -1.8261  0.9961
 1192ETH      C 4542   2.463   3.586   3.015  0.8315 -0.2380  0.0614
 1192ETH     C1 4543   2.321   3.525   3.023 -0.5252 -0.0861  0.1465
 1192ETH      O 4544   2.270   3.507   3.155 -0.4454 -0.4569 -0.2408
 1192ETH      H 4545   2.492   3.598   2.910  4.3820 -2.3853  0.6388
 1192ETH     H1 4546   2.525   3.513   3.067 -0.5790 -0.8007  1.0325
 1192ETH     H2 4547   2.456   3.678   3.075 -2.8872  0.2856 -0.9470
 1192ETH     H3 4548   2.253   3.591   2.969 -0.6154  0.5521  1.0123
 1192ETH     H4 4549   2.317   3.431   2.967  1.6708 -0.0060 -0.2194
 1192ETH     H5 4550   2.262   3.595   3.194  2.2612 -0.7780  1.2837
 1193ETH      C 4551   2.778   1.342   3.829  0.0044  0.1277 -0.0828
 1193ETH     C1 4552   2.668   1.283   3.747 -0.2677 -0.4666  0.1162
 1193ETH      O 4553   2.556   1.360   3.771  0.0886  0.1137 -0.0515
 1193ETH      H 4554   2.739   1.343   3.932  1.0836 -4.7636  0.6122
 1193ETH     H1 4555   2.796   1.444   3.791  0.2389 -0.2047 -0.8841
 1193ETH     H2 4556   2.862   1.272   3.825 -0.7051 -0.7618 -4.3184
 1193ETH     H3 4557   2.702   1.287   3.642  1.2145 -0.3952  0.5768
 1193ETH     H4 4558   2.646   1.179   3.772 -1.4968 -0.5055 -1.0057
 1193ETH     H5 4559   2.493   1.297   3.811  1.4516 -0.1180  1.8798
 1194ETH      C 4560   3.516   1.850   2.357  0.0397 -0.5586 -0.3215
 1194ETH     C1 4561   3.558   1.975   2.438  1.7565 -0.4542  0.3267
 1194ETH      O 4562   3.694   1.995   2.430  0.0363  0.2868  0.3656
 1194ETH      H 4563   3.574   1.762   2.387 -2.7544 -1.6955  2.2219
 1194ETH     H1 4564   3.526   1.868   2.249  1.8164 -1.6768 -0.3934
 1194ETH     H2 4565   3.413   1.827   2.386 -0.0912 -1.0138 -1.1150
 1194ETH     H3 4566   3.508   2.055   2.383  0.4733  0.5291  2.7404
 1194ETH     H4 4567   3.515   1.961   2.538 -0.4640 -2.7874 -0.8255
 1194ETH     H5 4568   3.732   1.914   2.468 -2.0180 -0.8464  0.1623
 1195ETH      C 4569   3.051   4.275   3.809 -0.3176 -0.7454 -0.4195
 1195ETH     C1 4570   3.029   4.372   3.917 -0.0382 -0.2417 -0.1684
 1195ETH      O 4571   3.030   4.310   4.041 -0.3456 -0.2490 -0.0793
 1195ETH      H 4572   3.158   4.249   3.814 -0.3784 -0.8033  1.0111
 1195ETH     H1 4573   3.024   4.329   3.717 -0.8779  0.3305  0.3473
 1195ETH     H2 4574   2.983   4.190   3.815 -1.8923  0.2530 -2.5339
 1195ETH     H3 4575   3.106   4.450   3.915  0.0429 -0.3070  0.3541
 1195ETH     H4 4576   2.935   4.428   3.904 -0.1060 -0.2042  0.4503
 1195ETH     H5 4577   3.014   4.379   4.108 -0.5174  0.7638 -1.1374
 1196ETH      C 4578   4.035   4.577   3.723 -0.3143  0.1448  0.1997
 1196ETH     C1 4579   3.976   4.439   3.765  0.0434  0.2984 -0.3989
 1196ETH      O 4580   4.054   4.329   3.720 -0.0440 -0.7279 -0.3571
 1196ETH      H 4581   4.009   4.590   3.617  1.2716  0.5466 -0.1759
 1196ETH     H1 4582   4.145   4.579   3.731 -0.2747 -0.8471 -0.0162
 1196ETH     H2 4583   3.995   4.662   3.780 -1.1002 -0.8043  1.0746
 1196ETH     H3 4584   3.967   4.442   3.874 -0.7685  0.6081 -0.4610
 1196ETH     H4 4585   3.878   4.421   3.719  0.8629 -1.2015 -1.6616
 1196ETH     H5 4586   4.044   4.326   3.624  1.4894  0.4072 -0.5908
 1197ETH      C 4587   2.774   2.815   2.731 -0.4941 -0.2340 -0.4623
 1197ETH     C1 4588   2.642   2.814   2.794 -0.1810  0.5265 -0.4322
 1197ETH      O 4589   2.578   2.945   2.786  0.1381  0.6158 -0.0374
 1197ETH      H 4590   2.772   2.840   2.625 -1.9536  0.7203 -0.2469
 1197ETH     H1 4591   2.810   2.712   2.732 -0.3557 -0.2688  2.6073
 1197ETH     H2 4592   2.850   2.875   2.783 -0.3369 -0.0487 -0.9085
 1197ETH     H3 4593   2.576   2.749   2.734  1.1248  1.2603 -2.7903
 1197ETH     H4 4594   2.641   2.774   2.896 -0.5196 -0.6386 -0.8670
 1197ETH     H5 4595   2.648   2.998   2.829  2.1405 -3.4914  2.4042
 1198ETH      C 4596   2.150   2.809   5.116 -0.2207  0.3194 -0.1034
 1198ETH     C1 4597   2.170   2.849   5.261  0.7914 -0.6691 -0.0914
 1198ETH      O 4598   2.041   2.877   5.314 -0.3439  0.0177 -0.1037
 1198ETH      H 4599   2.133   2.900   5.057 -0.0893  0.1859 -0.3504
 1198ETH     H1 4600   2.072   2.733   5.100  0.9055 -0.4595 -2.4801
 1198ETH     H2 4601   2.245   2.762   5.088 -0.4928 -1.1165  1.2331
 1198ETH     H3 4602   2.229   2.769   5.309 -1.5464 -2.7417 -0.4869
 1198ETH     H4 4603   2.223   2.945   5.260 -0.7016  0.3583  3.4094
 1198ETH     H5 4604   2.006   2.952   5.264  0.6885  0.3335 -0.3784
 1199ETH      C 4605   3.264   3.998   3.949  0.2955 -0.2034  0.9966
 1199ETH     C1 4606   3.369   4.020   4.058  0.4485  0.6256 -0.4538
 1199ETH      O 4607   3.500   4.018   3.989  0.1248 -0.2795 -0.2491
 1199ETH      H 4608   3.265   3.893   3.918 -0.4411  0.1526 -0.3247
 1199ETH     H1 4609   3.295   4.067   3.870  0.2752  1.5315  2.4315
 1199ETH     H2 4610   3.165   4.024   3.988  0.6268  0.1890  1.5966
 1199ETH     H3 4611   3.361   4.119   4.104 -0.0631  1.1296 -1.5751
 1199ETH     H4 4612   3.358   3.939   4.132 -0.8910 -0.2034 -1.5142
 1199ETH     H5 4613   3.479   3.954   3.919 -2.4208  0.3966 -0.2288
 1200ETH      C 4614   1.380   1.167   2.411 -0.2531 -0.4567 -0.2466
 1200ETH     C1 4615   1.455   1.233   2.525 -0.7980 -0.5448  0.3676
 1200ETH      O 4616   1.560   1.315   2.475  1.0366 -0.0966  0.3584
 1200ETH      H 4617   1.327   1.243   2.352  1.0270 -0.3886 -1.3560
 1200ETH     H1 4618   1.315   1.096   2.464 -0.6949  0.7978  0.9535
 1200ETH     H2 4619   1.448   1.118   2.341 -0.2309  0.0667 -0.5957
 1200ETH     H3 4620   1.381   1.289   2.584 -2.3464  1.7592 -3.4498
 1200ETH     H4 4621   1.503   1.151   2.579  1.2109 -1.7448 -2.9565
 1200ETH     H5 4622   1.577   1.388   2.536  1.6531  1.8317 -1.9615
 1201ETH      C 4623   4.669   0.317   1.901  0.0783  0.1665 -0.2256
 1201ETH     C1 4624   4.561   0.222   1.850 -0.1650 -0.0444  0.5070
 1201ETH      O 4625   4.615   0.098   1.808 -0.1309 -0.2720 -0.2751
 1201ETH      H 4626   4.645   0.415   1.943 -0.4045 -1.2575  3.1644
 1201ETH     H1 4627   4.738   0.335   1.817  2.7244 -1.7045  1.4044
 1201ETH     H2 4628   4.724   0.259   1.976 -0.9255 -1.8131 -0.9273
 1201ETH     H3 4629   4.486   0.200   1.927 -0.9757 -2.2512 -0.7835
 1201ETH     H4 4630   4.505   0.272   1.769  0.5894 -1.1697 -0.7577
 1201ETH     H5 4631   4.537   0.049   1.777  1.0286 -0.9783 -2.2274
 1202ETH      C 4632   1.840   4.306   1.070 -0.4346 -0.2114  0.4145
 1202ETH     C1 4633   1.919   4.196   1.145 -0.6205 -0.2604 -0.0874
 1202ETH      O 4634   1.846   4.127   1.244 -0.3306 -0.3999 -0.2130
 1202ETH      H 4635   1.874   4.330   0.969 -0.7806 -0.8484  0.1399
 1202ETH     H1 4636   1.843   4.404   1.121 -0.0710  0.1496 -0.2828
 1202ETH     H2 4637   1.738   4.268   1.055 -0.3628 -0.5475  0.7606
 1202ETH     H3 4638   1.968   4.121   1.082  0.5472 -1.3471  2.0311
 1202ETH     H4 4639   1.997   4.251   1.199 -1.5705  1.8065 -0.7038
 1202ETH     H5 4640   1.874   4.154   1.333 -0.7143 -2.3074  0.5426
 1203ETH      C 4641   3.745   3.404   4.724 -0.2790 -0.5651 -0.7019
 1203ETH     C1 4642   3.775   3.478   4.592 -0.6049  0.2393  0.0103
 1203ETH      O 4643   3.652   3.494   4.513 -0.3915 -0.0966 -0.2360
 1203ETH      H 4644   3.663   3.450   4.780  0.0019 -2.9836  1.9426
 1203ETH     H1 4645   3.832   3.400   4.790 -0.9157 -1.1030  0.1125
 1203ETH     H2 4646   3.718   3.304   4.689  1.9424 -1.3466 -0.3608
 1203ETH     H3 4647   3.826   3.574   4.613 -0.4270 -0.0572  0.9940
 1203ETH     H4 4648   3.851   3.426   4.533  0.5484  0.4829  1.2080
 1203ETH     H5 4649   3.649   3.408   4.466 -0.7307  0.6770 -1.6879
 1204ETH      C 4650   3.312   1.380   4.040 -0.2363 -0.1428 -0.3175
 1204ETH     C1 4651   3.354   1.396   3.889 -0.6343  0.0330 -0.7541
 1204ETH      O 4652   3.236   1.392   3.811 -0.1339 -0.2516 -0.3870
 1204ETH      H 4653   3.231   1.444   4.075  1.2713  2.4791 -1.3640
 1204ETH     H1 4654   3.398   1.418   4.096 -0.1641  0.0298 -0.5442
 1204ETH     H2 4655   3.295   1.278   4.078 -0.2495  0.7096  2.1283
 1204ETH     H3 4656   3.412   1.487   3.874 -0.7820  0.2912  0.1524
 1204ETH     H4 4657   3.423   1.314   3.867  0.0625  0.6949 -1.0872
 1204ETH     H5 4658   3.172   1.457   3.844 -1.3916 -1.4072 -0.4403
 1205ETH      C 4659   3.007   1.701   4.786 -0.1814  0.2008  0.4950
 1205ETH     C1 4660   2.977   1.677   4.637 -0.3637 -0.0386 -0.8192
 1205ETH      O 4661   3.044   1.780   4.569  0.2898 -0.3564  0.0926
 1205ETH      H 4662   2.962   1.618   4.841 -2.2717  1.5922  1.0175
 1205ETH     H1 4663   2.957   1.792   4.820  0.1924 -0.1004  1.9057
 1205ETH     H2 4664   3.114   1.693   4.811 -0.0186 -0.3759 -0.3413
 1205ETH     H3 4665   3.024   1.579   4.620 -0.3194 -0.8173  2.9777
 1205ETH     H4 4666   2.867   1.679   4.628 -0.6277 -3.1263  0.5076
 1205ETH     H5 4667   2.998   1.865   4.566  1.3576  0.2303 -1.7660
 1206ETH      C 4668   2.245   2.809   0.998  0.6901 -0.0806 -0.3427
 1206ETH     C1 4669   2.249   2.678   0.925 -0.4351  0.2200  0.2092
 1206ETH      O 4670   2.350   2.604   0.983  0.4436  0.0033 -0.1059
 1206ETH      H 4671   2.336   2.869   0.986  0.4295  1.0818  2.6735
 1206ETH     H1 4672   2.243   2.795   1.107  0.1708 -0.7240 -0.4303
 1206ETH     H2 4673   2.154   2.861   0.966  0.7317  0.1300 -0.1251
 1206ETH     H3 4674   2.158   2.616   0.932 -0.9194  0.9376  0.4402
 1206ETH     H4 4675   2.262   2.686   0.816 -0.8983 -0.2764  0.1122
 1206ETH     H5 4676   2.431   2.639   0.943  0.4363  1.6132  1.1604
 1207ETH      C 4677   2.170   4.965   3.249  0.2916 -0.7787  0.0113
 1207ETH     C1 4678   2.218   4.859   3.153  0.2798 -0.2229 -0.9044
 1207ETH      O 4679   2.116   4.768   3.131 -0.4837 -0.6056 -0.0299
 1207ETH      H 4680   2.075   5.004   3.211  0.2554 -1.8935 -1.0995
 1207ETH     H1 4681   2.250   5.039   3.244 -1.3886  1.0443 -1.4987
 1207ETH     H2 4682   2.164   4.934   3.354 -1.1567  1.2396  0.5958
 1207ETH     H3 4683   2.249   4.900   3.056  1.7319  0.7299 -0.0929
 1207ETH     H4 4684   2.298   4.805   3.206 -1.2183 -1.8714 -0.2181
 1207ETH     H5 4685   2.082   4.750   3.220  0.3697  0.7927  0.6148
 1208ETH      C 4686   1.645   3.458   1.112 -0.1720  0.0055 -0.0574
 1208ETH     C1 4687   1.757   3.557   1.146 -0.0028  0.1103  0.4175
 1208ETH      O 4688   1.809   3.537   1.276 -1.0249 -0.1018  0.0822
 1208ETH      H 4689   1.668   3.352   1.130  0.3359  0.1731  0.3295
 1208ETH     H1 4690   1.623   3.466   1.005  2.5783  2.2512 -0.5821
 1208ETH     H2 4691   1.560   3.479   1.179  0.6695 -0.3664  1.1698
 1208ETH     H3 4692   1.839   3.549   1.074 -0.0360  0.4351  0.3447
 1208ETH     H4 4693   1.713   3.656   1.134 -0.5280 -0.3644 -2.4723
 1208ETH     H5 4694   1.732   3.525   1.335 -1.2751  1.0789  0.0264
 1209ETH      C 4695   4.222   2.871   3.612  0.0435  0.5116  0.0900
 1209ETH     C1 4696   4.143   2.986   3.540  0.5322  0.5733 -0.0769
 1209ETH      O 4697   4.073   3.059   3.642 -0.2079 -1.0255 -0.2043
 1209ETH      H 4698   4.263   2.800   3.540 -0.6471 -0.4174  0.5917
 1209ETH     H1 4699   4.168   2.810   3.685  0.5430 -1.2249 -0.9256
 1209ETH     H2 4700   4.318   2.894   3.661  0.1835  1.1217 -0.4577
 1209ETH     H3 4701   4.212   3.060   3.497 -1.0149  2.0767 -0.1011
 1209ETH     H4 4702   4.076   2.950   3.461  0.3354  1.6185 -0.4113
 1209ETH     H5 4703   4.068   3.147   3.601  0.9934 -0.3575  1.0020
 1210ETH      C 4704   3.037   3.620   3.089 -0.3426 -0.0114 -0.4311
 1210ETH     C1 4705   2.940   3.726   3.044 -0.3732 -0.1336 -1.0182
 1210ETH      O 4706   2.815   3.702   3.092 -0.3121  0.0731 -0.2216
 1210ETH      H 4707   3.058   3.631   3.196  1.3050  0.6467 -0.7857
 1210ETH     H1 4708   3.134   3.619   3.037 -0.8299 -0.7721 -1.3491
 1210ETH     H2 4709   2.998   3.520   3.066  1.4738 -0.4498 -1.9086
 1210ETH     H3 4710   2.965   3.825   3.083 -0.4224  0.0773 -1.5159
 1210ETH     H4 4711   2.940   3.726   2.935 -1.8409 -1.6892 -1.0682
 1210ETH     H5 4712   2.781   3.794   3.095  3.8226  1.8390 -0.2251
 1211ETH      C 4713   1.629   4.260   3.745 -0.1200 -0.1449 -0.4839
 1211ETH     C1 4714   1.601   4.371   3.643  0.3995 -0.6172  0.4876
 1211ETH      O 4715   1.608   4.319   3.520 -0.2968 -0.3279  0.2833
 1211ETH      H 4716   1.549   4.189   3.771 -0.0237  0.1079  0.5531
 1211ETH     H1 4717   1.667   4.294   3.842 -1.5336 -2.6208  1.0578
 1211ETH     H2 4718   1.720   4.205   3.716  0.2074 -0.3724  0.8959
 1211ETH     H3 4719   1.502   4.416   3.658  0.8791  0.6862 -0.1303
 1211ETH     H4 4720   1.666   4.459   3.653 -1.7709  1.1425 -0.1477
 1211ETH     H5 4721   1.653   4.381   3.459  3.2854 -2.0886  0.8914
 1212ETH      C 4722   2.016   3.226   1.334  0.7011  0.2851 -0.2440
 1212ETH     C1 4723   2.145   3.245   1.408  0.1213 -0.0880 -0.2487
 1212ETH      O 4724   2.115   3.267   1.545 -0.0428  0.7769 -0.1918
 1212ETH      H 4725   1.930   3.236   1.401  0.5436  1.3197 -0.5792
 1212ETH     H1 4726   2.024   3.127   1.288 -0.4744  0.7659 -1.5179
 1212ETH     H2 4727   1.993   3.293   1.251 -1.1416 -2.6974 -2.3010
 1212ETH     H3 4728   2.198   3.149   1.406 -0.8538 -0.8635  3.6221
 1212ETH     H4 4729   2.205   3.325   1.363 -1.0504  0.2677 -1.2235
 1212ETH     H5 4730   2.039   3.328   1.544 -1.1665 -0.5356  1.0496
 1213ETH      C 4731   0.420   3.025   4.754  0.0067 -0.2925 -0.0688
 1213ETH     C1 4732   0.481   3.076   4.617  0.3128 -0.0133 -0.2083
 1213ETH      O 4733   0.582   3.173   4.647 -0.8650 -0.1904 -0.0974
 1213ETH      H 4734   0.351   2.943   4.732 -0.4672  0.0941 -0.0507
 1213ETH     H1 4735   0.377   3.112   4.804  0.1378 -0.4880  0.3821
 1213ETH     H2 4736   0.505   2.994   4.815 -0.0425  0.1414  0.2245
 1213ETH     H3 4737   0.518   2.985   4.569  0.3498 -1.1044  1.8025
 1213ETH     H4 4738   0.397   3.107   4.554  0.0949  1.8839  0.9387
 1213ETH     H5 4739   0.637   3.171   4.567  0.2632 -1.5310  0.6694
 1214ETH      C 4740   3.067   1.995   3.487  0.2932  0.2733  0.4494
 1214ETH     C1 4741   3.079   1.915   3.356  0.0092  0.8790 -0.7519
 1214ETH      O 4742   3.053   1.994   3.245  0.1453 -0.2050  0.3592
 1214ETH      H 4743   2.971   2.047   3.493  0.2687  0.6520 -2.1091
 1214ETH     H1 4744   3.149   2.068   3.478  0.5693  0.3460  2.8612
 1214ETH     H2 4745   3.078   1.934   3.578 -0.6889 -0.8519 -0.1613
 1214ETH     H3 4746   3.179   1.870   3.358 -0.4225 -0.0497  0.1354
 1214ETH     H4 4747   3.013   1.828   3.349 -0.0346  0.7307  1.1053
 1214ETH     H5 4748   2.961   2.023   3.260  0.1696 -0.6744  1.5101
 1215ETH      C 4749   4.253   5.627   3.434 -0.2475 -0.8149  0.1705
 1215ETH     C1 4750   4.265   5.775   3.449  0.2921 -0.3889 -0.3339
 1215ETH      O 4751   4.363   5.840   3.361  0.0363 -0.0200 -0.2579
 1215ETH      H 4752   4.357   5.595   3.431  0.9617  2.6125  0.9563
 1215ETH     H1 4753   4.201   5.609   3.339  2.7446  0.6924 -1.8996
 1215ETH     H2 4754   4.195   5.587   3.518 -1.3792  1.9091  0.8098
 1215ETH     H3 4755   4.168   5.826   3.441  0.9131  0.8042 -0.4885
 1215ETH     H4 4756   4.301   5.791   3.552  1.0084  2.1854 -0.9213
 1215ETH     H5 4757   4.304   5.849   3.284 -1.0383 -0.1492  0.5266
 1216ETH      C 4758   2.257   3.091   4.882 -0.0545  0.4177  0.0758
 1216ETH     C1 4759   2.306   3.000   4.770 -0.9640 -0.2467  0.5588
 1216ETH      O 4760   2.207   3.003   4.663  0.0509  0.5474 -0.1164
 1216ETH      H 4761   2.152   3.084   4.914 -0.8126  2.3415 -1.7433
 1216ETH     H1 4762   2.271   3.196   4.851  1.2902  0.8821  2.0397
 1216ETH     H2 4763   2.322   3.085   4.971  0.2448  2.6984  0.0880
 1216ETH     H3 4764   2.409   3.026   4.744 -0.6650  0.0603  1.9414
 1216ETH     H4 4765   2.319   2.897   4.807 -1.3423 -0.3128  0.5207
 1216ETH     H5 4766   2.151   2.927   4.684 -2.0973  2.2792  0.8806
 1217ETH      C 4767   1.195   3.226   2.503 -0.5598  0.2481  0.8003
 1217ETH     C1 4768   1.308   3.333   2.480 -0.1093  0.1021 -0.1757
 1217ETH      O 4769   1.310   3.377   2.347 -0.1337 -0.1173 -0.0252
 1217ETH      H 4770   1.094   3.266   2.487 -1.0668 -0.9043  1.0059
 1217ETH     H1 4771   1.215   3.179   2.600  0.8175 -0.1760  0.3352
 1217ETH     H2 4772   1.210   3.159   2.417  1.9988  2.5496 -0.6840
 1217ETH     H3 4773   1.273   3.414   2.545 -1.5873 -0.1823 -0.5680
 1217ETH     H4 4774   1.404   3.298   2.519 -0.7790 -0.5933  0.9154
 1217ETH     H5 4775   1.310   3.294   2.296 -0.0956  1.4031 -2.6859
 1218ETH      C 4776   1.720   5.503   2.786  0.6696 -0.5242  0.1498
 1218ETH     C1 4777   1.804   5.527   2.663  0.5438 -0.6423  0.1036
 1218ETH      O 4778   1.935   5.567   2.687  0.1536  0.0898 -0.0866
 1218ETH      H 4779   1.727   5.578   2.866 -1.1074  1.9342 -1.8032
 1218ETH     H1 4780   1.742   5.404   2.828  2.3045 -1.0480 -1.8297
 1218ETH     H2 4781   1.618   5.486   2.750  1.0799 -1.3977 -0.6409
 1218ETH     H3 4782   1.798   5.431   2.611 -0.3695 -0.2319 -0.5939
 1218ETH     H4 4783   1.756   5.605   2.601 -0.6658  1.8329  3.8136
 1218ETH     H5 4784   1.929   5.650   2.737  0.0862 -0.7587  1.3732
 1219ETH      C 4785   4.603   2.959   4.449  0.6177  0.0467 -0.3182
 1219ETH     C1 4786   4.494   3.070   4.459 -0.5682  0.4275  0.2917
 1219ETH      O 4787   4.412   3.054   4.342  0.9186 -0.3247 -0.2135
 1219ETH      H 4788   4.688   2.997   4.391  0.5313  0.2644 -0.3047
 1219ETH     H1 4789   4.554   2.870   4.408  0.6718  0.5397 -1.5137
 1219ETH     H2 4790   4.643   2.947   4.550 -1.3111  3.2194  0.9839
 1219ETH     H3 4791   4.432   3.052   4.547 -0.7893  0.5176  0.1544
 1219ETH     H4 4792   4.534   3.172   4.464  0.9520 -0.1894  3.8476
 1219ETH     H5 4793   4.328   3.101   4.357 -0.9555 -3.7196  1.1301
 1220ETH      C 4794   5.251   4.389   2.597  0.0293 -0.0788 -0.7945
 1220ETH     C1 4795   5.136   4.288   2.570  0.2350  0.3287  0.0309
 1220ETH      O 4796   5.111   4.214   2.691 -0.5129  0.0531  0.2816
 1220ETH      H 4797   5.258   4.457   2.511 -0.4723 -1.0886 -1.6546
 1220ETH     H1 4798   5.340   4.328   2.615 -1.5504 -2.2411  0.1173
 1220ETH     H2 4799   5.222   4.441   2.689 -1.0926 -1.3135 -0.4150
 1220ETH     H3 4800   5.047   4.348   2.546 -0.1538 -0.1526  0.2552
 1220ETH     H4 4801   5.157   4.230   2.480  0.5296 -1.0049  0.9291
 1220ETH     H5 4802   5.060   4.136   2.661  1.6082 -1.5933  0.7140
 1221ETH      C 4803   3.461   1.267   1.487  0.8204 -0.1267  0.2441
 1221ETH     C1 4804   3.524   1.351   1.604  0.3672  0.3317 -0.2815
 1221ETH      O 4805   3.573   1.467   1.542 -0.5236 -0.6143 -0.4275
 1221ETH      H 4806   3.546   1.235   1.426  0.9157 -1.5742  1.0954
 1221ETH     H1 4807   3.391   1.319   1.420  1.7985 -0.9879 -1.5445
 1221ETH     H2 4808   3.420   1.171   1.520  1.7938 -0.9970 -0.9543
 1221ETH     H3 4809   3.446   1.380   1.675 -0.4421  0.3747 -1.1551
 1221ETH     H4 4810   3.603   1.299   1.658  0.9723 -1.4668 -2.7095
 1221ETH     H5 4811   3.623   1.514   1.610  0.8311 -1.7637 -0.5679
 1222ETH      C 4812   4.332   4.339   1.922  0.0868 -0.2499 -0.0856
 1222ETH     C1 4813   4.336   4.277   1.781  0.0283  0.2584  0.2016
 1222ETH      O 4814   4.473   4.287   1.735 -0.2886 -0.0926 -0.0727
 1222ETH      H 4815   4.344   4.448   1.913 -1.1296 -0.0522  0.4431
 1222ETH     H1 4816   4.407   4.308   1.996  0.7352  0.5486 -0.3963
 1222ETH     H2 4817   4.236   4.310   1.966 -0.5083  0.0497 -1.1678
 1222ETH     H3 4818   4.302   4.173   1.779  0.2860  0.1579  0.7714
 1222ETH     H4 4819   4.272   4.339   1.717 -2.4107  0.8146  2.9690
 1222ETH     H5 4820   4.480   4.283   1.638  1.5282  0.8404 -0.0251
 1223ETH      C 4821   4.852   5.068   3.027 -0.0161 -0.1832  0.4015
 1223ETH     C1 4822   4.741   4.980   2.986  0.4847 -0.4009 -0.0098
 1223ETH      O 4823   4.721   4.880   3.085  0.3425 -0.3039 -0.4838
 1223ETH      H 4824   4.945   5.009   3.038  0.7273  1.2029  1.8628
 1223ETH     H1 4825   4.830   5.134   3.111  0.3556  0.4191  0.0294
 1223ETH     H2 4826   4.874   5.139   2.947  2.3050 -2.5183 -1.2414
 1223ETH     H3 4827   4.648   5.037   2.975 -0.7139 -2.0052  1.1527
 1223ETH     H4 4828   4.757   4.930   2.890 -2.3831 -0.9610 -0.2998
 1223ETH     H5 4829   4.796   4.818   3.079 -0.1116 -0.9504  0.2953
 1224ETH      C 4830   3.405   3.379   2.858 -0.1077 -0.7484 -0.0201
 1224ETH     C1 4831   3.292   3.364   2.953 -0.1825  0.1475 -0.2378
 1224ETH      O 4832   3.210   3.263   2.899  0.0316  0.5040  0.0447
 1224ETH      H 4833   3.462   3.465   2.894 -0.0317 -0.5290 -0.6420
 1224ETH     H1 4834   3.371   3.411   2.758 -1.2382 -0.1143  0.5397
 1224ETH     H2 4835   3.471   3.291   2.856 -0.1985 -0.8183  0.0299
 1224ETH     H3 4836   3.342   3.336   3.047  1.6049  1.7631 -0.6548
 1224ETH     H4 4837   3.234   3.455   2.973 -1.1987 -0.7382  1.1129
 1224ETH     H5 4838   3.177   3.292   2.813 -0.4481  0.6763  0.2821
 1225ETH      C 4839   1.463   1.045   2.952 -0.3199 -0.7288  0.8746
 1225ETH     C1 4840   1.514   1.183   2.889  0.2768  0.3556 -0.9021
 1225ETH      O 4841   1.613   1.243   2.980  0.5572  0.6438 -0.3096
 1225ETH      H 4842   1.387   1.064   3.028 -0.4978  0.0028  0.5265
 1225ETH     H1 4843   1.550   0.996   2.996 -0.2995 -2.2218 -0.7278
 1225ETH     H2 4844   1.413   0.976   2.882  0.8496 -0.4380 -0.2836
 1225ETH     H3 4845   1.566   1.168   2.793  1.3692  0.5351 -0.3525
 1225ETH     H4 4846   1.427   1.249   2.880 -1.3186 -1.6243 -0.6291
 1225ETH     H5 4847   1.629   1.335   2.954  0.1723  0.8758  0.2591
 1226ETH      C 4848   3.187   2.401   2.094 -0.5571  0.6959 -0.2246
 1226ETH     C1 4849   3.208   2.260   2.040  0.1355  0.4676 -0.3164
 1226ETH      O 4850   3.121   2.229   1.938 -0.3814  0.2815 -0.4894
 1226ETH      H 4851   3.245   2.424   2.184  0.0045 -0.2464 -0.3350
 1226ETH     H1 4852   3.081   2.415   2.117 -0.5645 -0.2717  0.3780
 1226ETH     H2 4853   3.216   2.475   2.018 -1.1208  0.9832 -0.1602
 1226ETH     H3 4854   3.311   2.242   2.007 -0.6404 -1.6218 -1.8437
 1226ETH     H4 4855   3.191   2.195   2.126 -2.3688  1.4478  0.0288
 1226ETH     H5 4856   3.138   2.306   1.880  3.7315  1.3835  1.7802
 1227ETH      C 4857   4.470   1.216   3.829  0.2460  0.6051  0.3740
 1227ETH     C1 4858   4.537   1.347   3.772 -0.6566  0.8487  0.4055
 1227ETH      O 4859   4.441   1.415   3.690 -0.6755 -0.0458 -0.3778
 1227ETH      H 4860   4.361   1.222   3.820  0.3338 -0.2567 -2.4694
 1227ETH     H1 4861   4.514   1.204   3.929  0.1534 -3.5710  0.0974
 1227ETH     H2 4862   4.502   1.130   3.768 -2.9654  0.7960 -1.7735
 1227ETH     H3 4863   4.557   1.409   3.861 -2.9563  1.8081  0.3138
 1227ETH     H4 4864   4.633   1.334   3.720 -0.4874  1.9953  0.4007
 1227ETH     H5 4865   4.498   1.469   3.633 -0.1690  0.3233  0.4554
 1228ETH      C 4866   4.851   3.387   1.370  0.2071 -0.6169  0.0017
 1228ETH     C1 4867   4.929   3.284   1.441 -0.4447  0.0435 -0.2016
 1228ETH      O 4868   4.863   3.244   1.566  0.0233  0.5448  0.0227
 1228ETH      H 4869   4.864   3.486   1.415 -0.4610 -0.6214  0.2120
 1228ETH     H1 4870   4.742   3.380   1.369  0.0785  0.9142 -0.4087
 1228ETH     H2 4871   4.889   3.395   1.267 -2.7295 -0.4975 -1.1468
 1228ETH     H3 4872   4.931   3.200   1.370  0.2765  1.2047 -1.6072
 1228ETH     H4 4873   5.035   3.307   1.458 -0.8160  0.7698  1.2506
 1228ETH     H5 4874   4.826   3.157   1.547  0.2751  0.7997 -1.8350
 1229ETH      C 4875   3.497   0.798   3.330  0.0611 -0.5193  0.5531
 1229ETH     C1 4876   3.435   0.942   3.342  0.4021 -0.0461  0.3188
 1229ETH      O 4877   3.511   1.030   3.262 -0.0113 -0.0957  0.0408
 1229ETH      H 4878   3.467   0.754   3.235 -0.0008  0.0854  0.2867
 1229ETH     H1 4879   3.453   0.730   3.404 -0.7472 -1.6013 -0.8648
 1229ETH     H2 4880   3.607   0.794   3.330  0.0711 -3.7881  2.2787
 1229ETH     H3 4881   3.332   0.951   3.306 -0.6305 -2.0108  2.4783
 1229ETH     H4 4882   3.435   0.980   3.445 -2.5970 -0.5018  0.5504
 1229ETH     H5 4883   3.482   1.122   3.276 -1.6197 -0.3532 -1.2773
 1230ETH      C 4884   4.306   1.254   2.704 -0.6760  0.4514 -0.5434
 1230ETH     C1 4885   4.325   1.107   2.744  0.1878 -0.4171 -0.3059
 1230ETH      O 4886   4.192   1.051   2.783  0.0040 -0.3699 -0.0972
 1230ETH      H 4887   4.268   1.306   2.793  1.0950  0.9142 -0.0173
 1230ETH     H1 4888   4.219   1.255   2.637 -0.9847 -0.0648 -0.1616
 1230ETH     H2 4889   4.382   1.308   2.646 -1.9459  1.3109 -1.4462
 1230ETH     H3 4890   4.352   1.058   2.649 -0.6800 -2.8096  0.6093
 1230ETH     H4 4891   4.401   1.090   2.821 -1.4604 -1.5765  1.1373
 1230ETH     H5 4892   4.153   1.112   2.847  2.1508  1.4920 -0.4391
 1231ETH      C 4893   1.710   2.542   5.340  0.4203  0.2940 -0.0827
 1231ETH     C1 4894   1.816   2.641   5.273 -0.5121  0.1656 -0.6188
 1231ETH      O 4895   1.774   2.776   5.281 -0.1337  0.0607 -0.1069
 1231ETH      H 4896   1.606   2.573   5.329  0.3967  0.2080 -0.1035
 1231ETH     H1 4897   1.731   2.536   5.447  1.7035  0.4358 -0.3033
 1231ETH     H2 4898   1.725   2.444   5.293  1.7822 -0.6398  2.1710
 1231ETH     H3 4899   1.915   2.629   5.318 -0.4273  0.9347 -0.5889
 1231ETH     H4 4900   1.831   2.609   5.169 -3.6536 -1.0540 -0.7977
 1231ETH     H5 4901   1.740   2.808   5.195  0.3433  0.4406 -0.1573
 1232ETH      C 4902   2.264   2.586   4.193 -0.2305  0.0127 -1.0290
 1232ETH     C1 4903   2.368   2.553   4.303 -0.0576  0.1595  0.7622
 1232ETH      O 4904   2.345   2.426   4.361  0.0918 -0.4277 -0.3766
 1232ETH      H 4905   2.286   2.536   4.098 -0.9061 -0.7040 -0.8190
 1232ETH     H1 4906   2.261   2.694   4.176  1.5822  0.7457  2.3964
 1232ETH     H2 4907   2.164   2.553   4.224 -1.3090  3.4725 -0.4281
 1232ETH     H3 4908   2.463   2.557   4.247 -0.4140 -1.7746 -0.0477
 1232ETH     H4 4909   2.389   2.635   4.373 -0.4226 -0.3595  1.4763
 1232ETH     H5 4910   2.429   2.378   4.354  0.5397  0.3725 -0.6745
 1233ETH      C 4911   5.556   3.793   4.124  0.0577  0.2204  0.3049
 1233ETH     C1 4912   5.651   3.700   4.050 -0.0226  0.3685  0.3398
 1233ETH      O 4913   5.591   3.642   3.933  0.3775  0.6921  0.3282
 1233ETH      H 4914   5.574   3.894   4.084  0.1853  0.0717 -0.0138
 1233ETH     H1 4915   5.564   3.807   4.233  0.4942  1.2653  0.1545
 1233ETH     H2 4916   5.455   3.762   4.096  0.6640 -1.1540 -0.4068
 1233ETH     H3 4917   5.749   3.738   4.021  0.2592 -1.2629 -1.0145
 1233ETH     H4 4918   5.674   3.620   4.121  0.1084  0.9621  0.9802
 1233ETH     H5 4919   5.594   3.703   3.857  2.0825 -1.5538 -1.5206
 1234ETH      C 4920   3.117   2.282   2.465 -0.8613 -0.0618  0.1617
 1234ETH     C1 4921   3.264   2.295   2.521  0.1993  0.5078 -0.1452
 1234ETH      O 4922   3.305   2.428   2.521  0.5965  0.3450  0.5364
 1234ETH      H 4923   3.092   2.175   2.461  1.4872 -0.7681  1.7759
 1234ETH     H1 4924   3.121   2.331   2.367  6.0539  1.2477  0.5959
 1234ETH     H2 4925   3.053   2.333   2.538 -2.0066 -2.1643  0.7228
 1234ETH     H3 4926   3.273   2.244   2.618 -0.6396  1.9232  0.7104
 1234ETH     H4 4927   3.334   2.241   2.456 -0.9619 -1.1345 -0.0918
 1234ETH     H5 4928   3.399   2.426   2.545  0.3073 -2.7230  1.8504
 1235ETH      C 4929   4.931   2.665   2.895 -0.2009  0.4877 -0.2800
 1235ETH     C1 4930   4.855   2.579   2.789 -0.0565 -0.2735 -0.8730
 1235ETH      O 4931   4.754   2.509   2.852  0.1895 -0.2924 -0.2709
 1235ETH      H 4932   4.954   2.590   2.972  1.1574  1.1830  0.0135
 1235ETH     H1 4933   4.877   2.752   2.935 -0.5314 -0.9081  2.6028
 1235ETH     H2 4934   5.024   2.708   2.858  0.6030  0.5956  1.7257
 1235ETH     H3 4935   4.811   2.622   2.698 -0.5458  1.4817  0.1443
 1235ETH     H4 4936   4.932   2.507   2.758 -0.0711 -1.1736  1.0447
 1235ETH     H5 4937   4.690   2.580   2.872 -1.1299 -2.2086  3.0505
 1236ETH      C 4938   3.577   2.531   4.959 -0.2650  0.2361  0.2246
 1236ETH     C1 4939   3.462   2.522   4.863 -0.7549  0.2753  0.5429
 1236ETH      O 4940   3.400   2.650   4.835 -0.1161 -0.0236 -0.2471
 1236ETH      H 4941   3.639   2.441   4.971 -2.8635 -1.3493  3.2228
 1236ETH     H1 4942   3.536   2.537   5.060 -2.7416 -1.2733 -0.5942
 1236ETH     H2 4943   3.648   2.611   4.933 -0.7826  0.5126 -0.3626
 1236ETH     H3 4944   3.490   2.467   4.772 -2.9903 -2.8503  1.5685
 1236ETH     H4 4945   3.396   2.447   4.910  1.5641 -1.7640  0.7409
 1236ETH     H5 4946   3.386   2.691   4.922 -1.2373 -5.4335  2.5849
 1237ETH      C 4947   4.755   4.610   1.850 -0.2367  0.2298  0.4390
 1237ETH     C1 4948   4.828   4.553   1.973 -0.2029  0.4846 -0.2394
 1237ETH      O 4949   4.831   4.655   2.069 -0.2218 -0.0682 -0.6371
 1237ETH      H 4950   4.659   4.662   1.860 -0.4777  0.5978 -2.7846
 1237ETH     H1 4951   4.746   4.531   1.775  2.1225 -0.4619  0.8087
 1237ETH     H2 4952   4.826   4.686   1.816 -0.7142  0.6994  0.4818
 1237ETH     H3 4953   4.768   4.470   2.011  1.1987 -0.3059  0.3260
 1237ETH     H4 4954   4.929   4.514   1.957 -0.1599  1.1710 -1.8593
 1237ETH     H5 4955   4.860   4.731   2.015 -0.3942  1.7195  1.6549
 1238ETH      C 4956   5.424   3.945   2.615  0.2692  0.0509 -0.5996
 1238ETH     C1 4957   5.341   3.817   2.579 -0.2897 -0.5159 -0.1121
 1238ETH      O 4958   5.423   3.740   2.495 -0.6052  0.0141  0.5635
 1238ETH      H 4959   5.364   3.986   2.697 -0.8505  3.2801 -2.8327
 1238ETH     H1 4960   5.422   4.017   2.532 -1.2110  0.2482 -0.4040
 1238ETH     H2 4961   5.527   3.920   2.644  0.0838  0.1740  0.1942
 1238ETH     H3 4962   5.336   3.777   2.681  1.4173  2.0771  1.0832
 1238ETH     H4 4963   5.245   3.847   2.536 -0.0346  0.0606 -0.2792
 1238ETH     H5 4964   5.422   3.647   2.523 -0.1101  0.1117  0.9109
 1239ETH      C 4965   4.668   1.806   4.064  0.9162  0.5589 -0.5084
 1239ETH     C1 4966   4.589   1.797   3.936  0.0451  0.4117  0.0050
 1239ETH      O 4967   4.451   1.824   3.951 -0.0165  0.4414  0.1935
 1239ETH      H 4968   4.771   1.777   4.041  1.1453  1.5168 -0.7063
 1239ETH     H1 4969   4.635   1.740   4.146 -1.5432  0.3791 -1.5613
 1239ETH     H2 4970   4.672   1.910   4.100  0.9096  0.0946  0.9221
 1239ETH     H3 4971   4.635   1.868   3.866 -0.1653  0.4990 -0.0470
 1239ETH     H4 4972   4.594   1.699   3.886 -0.2916  0.7376 -0.6778
 1239ETH     H5 4973   4.441   1.900   4.011  1.1589  1.9458 -1.4090
 1240ETH      C 4974   3.085   2.043   2.859  0.4737  0.5494 -0.0148
 1240ETH     C1 4975   2.974   1.939   2.843  0.1049 -0.7401  0.1569
 1240ETH      O 4976   2.875   1.989   2.759 -0.0671 -0.0561 -0.2256
 1240ETH      H 4977   3.168   2.016   2.926 -0.4120 -1.0315  0.4846
 1240ETH     H1 4978   3.040   2.118   2.925  2.2267  1.4049  0.2667
 1240ETH     H2 4979   3.113   2.093   2.765 -2.5522 -0.7346 -1.7260
 1240ETH     H3 4980   3.012   1.843   2.806 -3.4362 -2.2908  0.1217
 1240ETH     H4 4981   2.930   1.920   2.941  0.7095 -0.2876  0.5276
 1240ETH     H5 4982   2.856   2.072   2.804  1.1242 -0.2419  0.6633
 1241ETH      C 4983   3.462   4.817   1.140  0.1339 -0.2534 -0.4201
 1241ETH     C1 4984   3.392   4.838   1.279 -0.8280 -0.1452  0.1840
 1241ETH      O 4985   3.368   4.714   1.359 -0.7954 -0.0544  0.1911
 1241ETH      H 4986   3.544   4.744   1.144  0.1351 -0.2468 -0.3003
 1241ETH     H1 4987   3.507   4.911   1.106 -1.8936  1.1172  0.4849
 1241ETH     H2 4988   3.383   4.791   1.069  1.5498  0.1560 -2.2210
 1241ETH     H3 4989   3.454   4.909   1.334  0.9947 -0.5563 -1.2058
 1241ETH     H4 4990   3.297   4.880   1.244  0.1104 -0.6566 -3.4093
 1241ETH     H5 4991   3.272   4.698   1.356 -1.2779  2.3676  0.2770
 1242ETH      C 4992   2.911   1.876   0.943  1.2220  0.4256  0.6322
 1242ETH     C1 4993   2.969   1.826   1.072  0.7041  0.3515 -0.0181
 1242ETH      O 4994   3.103   1.778   1.041 -0.0888 -0.4360  0.0448
 1242ETH      H 4995   2.807   1.898   0.970  1.6208 -0.2401  2.9423
 1242ETH     H1 4996   2.909   1.800   0.864  1.1992 -0.9951  1.9504
 1242ETH     H2 4997   2.963   1.960   0.896  0.4544  0.4673 -0.1852
 1242ETH     H3 4998   2.961   1.907   1.146 -1.7676  0.7397 -0.6216
 1242ETH     H4 4999   2.918   1.735   1.109  1.0808 -0.2990 -1.0634
 1242ETH     H5 5000   3.145   1.747   1.123  3.0916 -0.0254 -1.3099
 1243ETH      C 5001   2.588   0.845   1.757  0.5721  0.2709  0.2748
 1243ETH     C1 5002   2.505   0.953   1.833  0.8290 -0.0743 -0.1103
 1243ETH      O 5003   2.580   1.004   1.939 -0.1725  0.0576 -0.1371
 1243ETH      H 5004   2.635   0.894   1.671  0.0307  1.3557  0.5796
 1243ETH     H1 5005   2.529   0.765   1.711  0.4936  1.4562 -1.8157
 1243ETH     H2 5006   2.659   0.787   1.817  0.6166  0.1033  0.0617
 1243ETH     H3 5007   2.466   1.030   1.766 -0.2619 -1.4596 -1.1223
 1243ETH     H4 5008   2.419   0.897   1.871  0.2516  0.1540 -1.0520
 1243ETH     H5 5009   2.520   1.064   1.988  0.3318  1.0077 -0.6406
 1244ETH      C 5010   0.583   4.435   3.461 -0.2177 -0.4413  0.2257
 1244ETH     C1 5011   0.561   4.285   3.427  0.4486 -0.5375  0.3548
 1244ETH      O 5012   0.684   4.216   3.443  0.0850 -0.1993  0.8777
 1244ETH      H 5013   0.664   4.477   3.401 -0.1433 -1.3842 -0.3551
 1244ETH     H1 5014   0.606   4.449   3.567 -1.8751  2.5733  0.3033
 1244ETH     H2 5015   0.493   4.496   3.446  0.2616  0.3973  0.6691
 1244ETH     H3 5016   0.476   4.244   3.482 -2.5520  0.7288 -2.9718
 1244ETH     H4 5017   0.529   4.290   3.322  3.4256 -1.2871 -0.7104
 1244ETH     H5 5018   0.739   4.256   3.513  0.3857  2.1515 -0.6133
 1245ETH      C 5019   3.140   4.327   5.014  0.5605 -0.5377  0.4771
 1245ETH     C1 5020   3.136   4.184   4.966  0.1145  0.2704 -0.1755
 1245ETH      O 5021   3.066   4.113   5.074 -0.2467  0.3441 -0.4822
 1245ETH      H 5022   3.039   4.362   5.038  0.5451 -0.4443  0.2809
 1245ETH     H1 5023   3.154   4.396   4.930  0.1969  1.3673  1.9436
 1245ETH     H2 5024   3.211   4.336   5.097 -3.8823  1.0935  4.5680
 1245ETH     H3 5025   3.073   4.176   4.876  0.4843 -1.3674 -0.3260
 1245ETH     H4 5026   3.240   4.152   4.950  0.0575  0.3132 -0.6446
 1245ETH     H5 5027   3.079   4.021   5.043  0.4067  1.0769 -2.5557
 1246ETH      C 5028   4.001   1.970   1.717  0.1050  0.0291 -0.7704
 1246ETH     C1 5029   4.040   2.073   1.829 -0.4394 -0.6755 -1.2263
 1246ETH      O 5030   4.154   2.015   1.895  0.1999  0.3738 -0.0679
 1246ETH      H 5031   3.971   1.875   1.764 -0.2095  0.9018  0.8966
 1246ETH     H1 5032   4.081   1.963   1.643  0.2972  0.0023 -0.5617
 1246ETH     H2 5033   3.915   2.005   1.659 -0.4150 -0.6074 -0.3960
 1246ETH     H3 5034   4.070   2.172   1.793 -0.0909 -0.5542 -0.6024
 1246ETH     H4 5035   3.958   2.063   1.901  1.1466 -2.1120  0.4716
 1246ETH     H5 5036   4.201   1.954   1.836 -1.7581 -2.0881  0.7306
 1247ETH      C 5037   4.355   2.137   4.301  0.2263  0.5554 -0.0658
 1247ETH     C1 5038   4.394   2.245   4.203  0.1994  0.3111 -0.0913
 1247ETH      O 5039   4.374   2.195   4.071  0.3983  0.0563  0.5125
 1247ETH      H 5040   4.407   2.041   4.293 -2.3546 -1.0963  1.3947
 1247ETH     H1 5041   4.246   2.121   4.306  0.2822  0.4390  1.0326
 1247ETH     H2 5042   4.380   2.178   4.400  0.3726 -0.4671  0.3380
 1247ETH     H3 5043   4.334   2.335   4.220 -1.4287 -0.4208 -1.6332
 1247ETH     H4 5044   4.496   2.281   4.219  0.4567 -0.6237  0.4301
 1247ETH     H5 5045   4.293   2.239   4.042  0.3325 -0.7606 -0.5992
 1248ETH      C 5046   4.049   5.330   3.703  0.5283  0.5906  0.1855
 1248ETH     C1 5047   3.911   5.258   3.680 -0.1104  0.0477 -0.2955
 1248ETH      O 5048   3.912   5.186   3.554 -0.3051  0.1862  0.1212
 1248ETH      H 5049   4.036   5.382   3.799 -0.4336 -0.7461  0.8211
 1248ETH     H1 5050   4.068   5.396   3.618 -0.1222 -1.2487 -1.4507
 1248ETH     H2 5051   4.131   5.257   3.713  1.4048  1.7036  1.5418
 1248ETH     H3 5052   3.906   5.183   3.761  1.1021 -1.4106 -1.5101
 1248ETH     H4 5053   3.823   5.324   3.674 -2.0190 -2.4141 -2.1550
 1248ETH     H5 5054   4.004   5.189   3.523 -0.1615 -1.7361  0.2239
 1249ETH      C 5055   3.642   0.397   1.601 -0.1437  0.4192  0.3046
 1249ETH     C1 5056   3.724   0.526   1.631  0.2734 -0.1039  0.0170
 1249ETH      O 5057   3.751   0.600   1.516 -0.1263 -0.1640 -0.1407
 1249ETH      H 5058   3.658   0.361   1.499 -0.2052 -1.1637  0.8258
 1249ETH     H1 5059   3.535   0.400   1.622 -0.5811 -2.5495 -0.9802
 1249ETH     H2 5060   3.686   0.319   1.665 -0.8513  0.0823  0.3879
 1249ETH     H3 5061   3.669   0.592   1.700 -1.1926 -0.2882 -0.9140
 1249ETH     H4 5062   3.816   0.492   1.680 -0.4081 -1.0084  0.7233
 1249ETH     H5 5063   3.756   0.691   1.549 -0.9074  0.0317 -0.5379
 1250ETH      C 5064   1.603   3.532   2.570  0.7365  0.3505  0.1880
 1250ETH     C1 5065   1.674   3.676   2.567  0.6270 -0.1711 -0.4811
 1250ETH      O 5066   1.573   3.769   2.562 -0.4337 -0.4638 -0.2533
 1250ETH      H 5067   1.551   3.527   2.666  1.2407  1.1639  0.5157
 1250ETH     H1 5068   1.686   3.461   2.572  2.0415  1.6743 -2.0403
 1250ETH     H2 5069   1.523   3.518   2.497  0.8129 -2.1293  0.5179
 1250ETH     H3 5070   1.733   3.704   2.656  0.4946  1.3258 -0.8283
 1250ETH     H4 5071   1.740   3.684   2.480 -1.0521  2.8751 -1.6217
 1250ETH     H5 5072   1.520   3.744   2.485 -1.8399 -1.9304  1.1217
 1251ETH      C 5073   2.668   0.196   1.588 -0.0807  0.1244 -0.3207
 1251ETH     C1 5074   2.731   0.333   1.620  0.1558  0.0510 -0.4618
 1251ETH      O 5075   2.871   0.315   1.657 -0.1521 -0.3024  0.1043
 1251ETH      H 5076   2.559   0.209   1.581 -0.0166  0.1499 -1.4689
 1251ETH     H1 5077   2.689   0.112   1.656 -1.6530  0.2614  0.3902
 1251ETH     H2 5078   2.705   0.167   1.490 -1.0866 -0.1910 -0.6203
 1251ETH     H3 5079   2.728   0.397   1.531  1.1439 -0.3141 -0.7794
 1251ETH     H4 5080   2.685   0.392   1.700 -0.1465 -0.3544 -0.3338
 1251ETH     H5 5081   2.901   0.399   1.697 -1.2151 -0.1388  0.6037
 1252ETH      C 5082   3.264   1.053   3.806  0.0709  0.2628 -0.0949
 1252ETH     C1 5083   3.171   1.083   3.687 -0.1708 -0.3839  0.2525
 1252ETH      O 5084   3.046   1.011   3.706 -0.5707  0.0529  0.0733
 1252ETH      H 5085   3.205   1.055   3.898  0.8936 -0.5092  0.4781
 1252ETH     H1 5086   3.345   1.125   3.789  0.2783  0.7522  2.5589
 1252ETH     H2 5087   3.310   0.953   3.799 -0.9345 -0.1620 -0.9204
 1252ETH     H3 5088   3.152   1.190   3.678  1.0652 -0.1197  0.5125
 1252ETH     H4 5089   3.220   1.050   3.594 -1.5393  1.3117 -1.1211
 1252ETH     H5 5090   3.067   0.939   3.769  3.5292  0.6997 -0.2967
 1253ETH      C 5091   5.101   4.612   2.869 -0.3912  0.3844 -0.8502
 1253ETH     C1 5092   5.030   4.740   2.930 -0.6197  0.3239  0.6362
 1253ETH      O 5093   4.898   4.712   2.966  0.4715  0.2592 -0.6745
 1253ETH      H 5094   5.200   4.629   2.827 -0.4529 -1.5493 -1.8887
 1253ETH     H1 5095   5.042   4.570   2.787  0.5768 -0.8213 -0.9567
 1253ETH     H2 5096   5.108   4.528   2.940  1.5378  0.2314 -1.1768
 1253ETH     H3 5097   5.084   4.784   3.015 -0.5883  1.0913  0.2211
 1253ETH     H4 5098   5.024   4.804   2.842 -1.0103  0.0304  0.4476
 1253ETH     H5 5099   4.891   4.616   2.957  0.5864  0.2193 -0.3621
 1254ETH      C 5100   4.170   2.388   2.971 -0.0537 -0.5334 -0.3264
 1254ETH     C1 5101   4.032   2.335   3.028 -0.0739  0.4179  0.3848
 1254ETH      O 5102   4.042   2.249   3.140  0.0965  0.4659  0.2725
 1254ETH      H 5103   4.232   2.304   2.937 -0.6655 -0.3811 -1.9164
 1254ETH     H1 5104   4.228   2.432   3.053  1.2002 -2.9293  0.1878
 1254ETH     H2 5105   4.150   2.464   2.895  0.0329  0.2591  0.4294
 1254ETH     H3 5106   3.975   2.425   3.055 -0.6473  1.5208 -3.7256
 1254ETH     H4 5107   3.984   2.279   2.947  0.8842  0.8023 -0.4786
 1254ETH     H5 5108   4.007   2.160   3.125  0.9271 -0.0569  1.3122
 1255ETH      C 5109   3.982   4.573   1.959 -0.5501 -0.2571  0.4687
 1255ETH     C1 5110   3.974   4.565   2.107  0.0900  0.2692 -0.5704
 1255ETH      O 5111   4.033   4.686   2.162 -0.3371  0.8256  0.0311
 1255ETH      H 5112   3.963   4.477   1.909  0.0826  1.2187 -2.8774
 1255ETH     H1 5113   4.077   4.605   1.916 -1.1552 -0.8731 -1.4088
 1255ETH     H2 5114   3.908   4.649   1.930 -1.7912 -1.2111  1.0101
 1255ETH     H3 5115   3.866   4.561   2.127  0.2312 -1.4224 -0.0171
 1255ETH     H4 5116   4.021   4.475   2.147 -0.5082 -0.3248 -1.1831
 1255ETH     H5 5117   3.973   4.763   2.159  1.3963  2.2086 -0.6944
 1256ETH      C 5118   3.718   4.274   2.202  0.5671 -0.6550  0.7017
 1256ETH     C1 5119   3.790   4.301   2.336  0.4804 -0.2255 -0.2074
 1256ETH      O 5120   3.852   4.177   2.370 -0.2934  0.4801 -0.1832
 1256ETH      H 5121   3.785   4.244   2.121  0.7718 -4.2638  2.0196
 1256ETH     H1 5122   3.663   4.368   2.186  0.2871 -1.0515 -0.7224
 1256ETH     H2 5123   3.644   4.194   2.203 -1.4821  1.1182 -0.5814
 1256ETH     H3 5124   3.854   4.389   2.330  1.0388 -0.4408  1.8274
 1256ETH     H4 5125   3.723   4.334   2.417  2.0542  4.4171 -0.5307
 1256ETH     H5 5126   3.832   4.165   2.465 -0.6889  0.4667 -0.2644
 1257ETH      C 5127   2.876   3.024   5.535 -0.3623  0.0028  0.1522
 1257ETH     C1 5128   2.797   2.892   5.561  0.0436 -0.5702 -0.0642
 1257ETH      O 5129   2.795   2.863   5.702 -0.0674  0.5315  0.3601
 1257ETH      H 5130   2.979   2.997   5.507 -0.7665 -0.1830 -1.1871
 1257ETH     H1 5131   2.882   3.092   5.621 -2.8946  0.5399 -0.0132
 1257ETH     H2 5132   2.839   3.079   5.448  1.6978 -0.2250 -0.9167
 1257ETH     H3 5133   2.695   2.900   5.524  0.1404  0.9800 -0.0821
 1257ETH     H4 5134   2.833   2.807   5.501  1.6070 -1.2106  1.6692
 1257ETH     H5 5135   2.812   2.942   5.756  0.3367 -0.7384  2.2151
 1258ETH      C 5136   1.663   0.760   2.155  0.2963 -0.1175  0.2074
 1258ETH     C1 5137   1.590   0.848   2.248 -0.2213 -0.0324 -0.1170
 1258ETH      O 5138   1.675   0.943   2.315 -0.0855  0.4964 -0.0675
 1258ETH      H 5139   1.750   0.717   2.206  0.2278  0.9637  1.2842
 1258ETH     H1 5140   1.701   0.827   2.077  1.0535 -0.2708  0.4381
 1258ETH     H2 5141   1.593   0.684   2.120  0.3357 -0.0962  0.0814
 1258ETH     H3 5142   1.510   0.909   2.204 -0.9247 -0.6082  0.3277
 1258ETH     H4 5143   1.540   0.793   2.329 -0.4247  0.5659  0.1733
 1258ETH     H5 5144   1.755   0.962   2.262 -0.3689  0.8949 -0.3584
 1259ETH      C 5145   0.605   3.298   4.991 -0.4239 -0.0602  0.7599
 1259ETH     C1 5146   0.757   3.289   4.954  0.2498  0.0682 -0.6953
 1259ETH      O 5147   0.777   3.225   4.835  0.3799 -0.0664  0.3848
 1259ETH      H 5148   0.545   3.368   4.933 -1.0248  2.7736  4.4019
 1259ETH     H1 5149   0.595   3.340   5.092 -3.6035 -1.7117  1.2697
 1259ETH     H2 5150   0.554   3.201   4.990 -1.3487  0.4095  1.3132
 1259ETH     H3 5151   0.789   3.394   4.952 -0.5850  0.3299 -0.8087
 1259ETH     H4 5152   0.812   3.233   5.031  0.5155  1.1306 -0.0834
 1259ETH     H5 5153   0.690   3.209   4.795  0.7588 -0.8446 -0.1551
 1260ETH      C 5154   4.147   3.687   2.740  0.9569  1.1599 -0.2080
 1260ETH     C1 5155   4.195   3.541   2.709 -0.5470 -0.1127 -0.0717
 1260ETH      O 5156   4.301   3.553   2.618 -0.5527 -0.2184  0.5877
 1260ETH      H 5157   4.072   3.684   2.820  1.9496  0.8575  0.7254
 1260ETH     H1 5158   4.117   3.749   2.654 -0.4672 -0.3994 -0.8995
 1260ETH     H2 5159   4.231   3.731   2.795  1.6562 -0.8694  0.4345
 1260ETH     H3 5160   4.224   3.499   2.806  0.2056  0.8872  0.1552
 1260ETH     H4 5161   4.109   3.485   2.669  0.9192 -2.6041  0.0472
 1260ETH     H5 5162   4.276   3.610   2.543 -2.0721 -1.0365  0.4270
 1261ETH      C 5163   1.660   2.045   2.577 -0.1263 -0.7281  0.0864
 1261ETH     C1 5164   1.792   2.043   2.501  0.8747  1.1816  0.4353
 1261ETH      O 5165   1.795   1.926   2.418 -0.0409  0.1700 -0.2926
 1261ETH      H 5166   1.575   2.051   2.509  0.6188  0.1211 -0.8053
 1261ETH     H1 5167   1.653   2.137   2.636  0.3059 -1.0566  0.6597
 1261ETH     H2 5168   1.652   1.960   2.645 -0.1687 -0.2262  0.7240
 1261ETH     H3 5169   1.798   2.135   2.442  0.1591  0.5368 -0.6637
 1261ETH     H4 5170   1.872   2.048   2.576  0.5838  0.4235  0.8078
 1261ETH     H5 5171   1.702   1.898   2.416 -0.2837  0.3210  3.1642
 1262ETH      C 5172   2.207   2.483   5.585 -0.0414 -0.0817  0.1656
 1262ETH     C1 5173   2.103   2.565   5.516 -0.0334  0.3730  0.3236
 1262ETH      O 5174   2.147   2.699   5.520 -0.0315 -0.2180  0.4503
 1262ETH      H 5175   2.175   2.391   5.634  2.2200 -0.3753  1.2375
 1262ETH     H1 5176   2.247   2.546   5.665  1.2324 -1.6790  0.8510
 1262ETH     H2 5177   2.293   2.480   5.517 -0.6448  3.4805 -0.9720
 1262ETH     H3 5178   2.082   2.517   5.420 -2.8180  2.3002 -0.1286
 1262ETH     H4 5179   2.012   2.556   5.577  0.7129 -2.8772  1.1888
 1262ETH     H5 5180   2.095   2.743   5.451  1.0700  1.2328  0.5024
 1263ETH      C 5181   4.444   4.619   2.915 -0.7590  1.0280  0.4069
 1263ETH     C1 5182   4.558   4.637   2.817  0.2757 -0.0101  0.1100
 1263ETH      O 5183   4.509   4.579   2.699 -0.1754  0.1458 -0.1033
 1263ETH      H 5184   4.405   4.517   2.901 -0.6241  0.5385  3.0827
 1263ETH     H1 5185   4.359   4.683   2.889  0.0428  1.8892 -0.1478
 1263ETH     H2 5186   4.480   4.626   3.018  0.7868 -3.4750  0.4073
 1263ETH     H3 5187   4.582   4.744   2.810 -1.1260  0.2039 -3.8857
 1263ETH     H4 5188   4.646   4.585   2.856  0.2109  1.2868  2.1634
 1263ETH     H5 5189   4.494   4.484   2.712  2.9296 -0.3387  0.7220
 1264ETH      C 5190   3.413   3.957   5.366  0.0730  0.5837  0.3170
 1264ETH     C1 5191   3.567   3.959   5.322  0.1901  0.0791 -0.1391
 1264ETH      O 5192   3.637   3.985   5.439 -0.2530 -0.1942 -0.0007
 1264ETH      H 5193   3.346   3.935   5.283  0.5429 -3.6936  0.8503
 1264ETH     H1 5194   3.379   4.043   5.427 -1.2547 -0.5264  1.2009
 1264ETH     H2 5195   3.401   3.875   5.437 -2.1556 -0.7861 -1.5447
 1264ETH     H3 5196   3.607   3.864   5.284  2.2198  0.8015  0.0641
 1264ETH     H4 5197   3.578   4.038   5.247 -2.9498  0.0353 -0.7746
 1264ETH     H5 5198   3.579   4.048   5.483 -2.1244 -1.4118 -0.5888
 1265ETH      C 5199   5.272   4.313   3.738 -0.3628 -0.8020  0.1125
 1265ETH     C1 5200   5.152   4.229   3.782 -0.3950 -0.1395  0.1822
 1265ETH      O 5201   5.091   4.169   3.667  0.3476  0.2641 -0.6527
 1265ETH      H 5202   5.351   4.252   3.692 -0.1904  0.9584 -2.0923
 1265ETH     H1 5203   5.311   4.374   3.821  1.9316 -0.6055 -1.0331
 1265ETH     H2 5204   5.237   4.385   3.663 -0.2815  2.0793  2.6343
 1265ETH     H3 5205   5.182   4.157   3.859 -0.7108  1.2300  1.6266
 1265ETH     H4 5206   5.070   4.284   3.830 -0.6403  1.0584 -1.5466
 1265ETH     H5 5207   5.073   4.076   3.689  1.6849 -0.0990 -1.0106
 1266ETH      C 5208   4.849   5.740   2.090  0.3333 -0.3308 -0.0353
 1266ETH     C1 5209   4.701   5.716   2.108  0.1558  0.4038 -0.0070
 1266ETH      O 5210   4.622   5.825   2.077  0.0954  0.0228 -0.0989
 1266ETH      H 5211   4.886   5.809   2.166 -1.2424  1.5274 -0.8880
 1266ETH     H1 5212   4.869   5.792   1.996 -1.3610 -1.2582 -0.9637
 1266ETH     H2 5213   4.910   5.649   2.085 -0.2682 -0.7527  0.0812
 1266ETH     H3 5214   4.676   5.631   2.043  0.6008 -0.2660  0.6805
 1266ETH     H4 5215   4.678   5.681   2.209  0.9235 -3.3532 -0.9984
 1266ETH     H5 5216   4.628   5.841   1.981 -0.4524  0.3694 -0.0860
 1267ETH      C 5217   3.065   0.714   3.483 -0.8112 -0.3590  0.3147
 1267ETH     C1 5218   2.919   0.660   3.491  0.1621 -0.0785  0.2638
 1267ETH      O 5219   2.870   0.693   3.618 -0.4040  0.0345 -0.1053
 1267ETH      H 5220   3.126   0.638   3.534 -0.4267  0.5268  1.2233
 1267ETH     H1 5221   3.082   0.807   3.539  0.2065  0.2470 -0.9550
 1267ETH     H2 5222   3.095   0.724   3.378 -0.1506  0.5507  0.5802
 1267ETH     H3 5223   2.847   0.700   3.419 -1.0944 -0.4310  1.2992
 1267ETH     H4 5224   2.928   0.551   3.478 -0.1461  0.0060 -0.7382
 1267ETH     H5 5225   2.941   0.713   3.682  0.0452  2.3619 -1.2415
 1268ETH      C 5226   4.286   2.899   2.326  0.0159  0.7457 -0.7542
 1268ETH     C1 5227   4.184   2.811   2.389 -0.5035  0.4818  0.0958
 1268ETH      O 5228   4.076   2.884   2.444 -0.0506 -0.4272  0.4588
 1268ETH      H 5229   4.317   2.966   2.407  0.7856 -0.2660 -0.1842
 1268ETH     H1 5230   4.248   2.952   2.238 -0.0940  0.5816 -0.8072
 1268ETH     H2 5231   4.370   2.836   2.294 -0.4666  0.9176 -2.4266
 1268ETH     H3 5232   4.156   2.739   2.311  1.7579  0.0006 -0.3495
 1268ETH     H4 5233   4.249   2.763   2.464 -0.3490  2.3875  1.2516
 1268ETH     H5 5234   4.017   2.905   2.369  0.1154 -0.3895  0.3390
 1269ETH      C 5235   3.139   3.624   3.998 -0.6729  0.4274  0.2730
 1269ETH     C1 5236   3.031   3.720   4.028  0.7067  0.6789  0.5137
 1269ETH      O 5237   2.947   3.723   3.913  0.3929  0.0030  0.3282
 1269ETH      H 5238   3.095   3.529   3.968 -0.3705 -0.0965  1.4451
 1269ETH     H1 5239   3.207   3.598   4.079 -1.1438  0.3864  0.6601
 1269ETH     H2 5240   3.206   3.666   3.922 -0.9684  0.1653 -0.1324
 1269ETH     H3 5241   2.981   3.684   4.118  1.1279  0.3615  0.6234
 1269ETH     H4 5242   3.070   3.822   4.044  0.7189  0.8226 -0.3466
 1269ETH     H5 5243   2.875   3.787   3.930 -1.7222 -1.6947 -1.5501
 1270ETH      C 5244   3.397   3.241   3.362 -0.5241  0.6227  0.1512
 1270ETH     C1 5245   3.305   3.360   3.381  0.0151  0.6546  0.0805
 1270ETH      O 5246   3.378   3.477   3.397 -0.5995  0.5306  0.4122
 1270ETH      H 5247   3.437   3.237   3.260 -2.0050  1.3309 -0.4841
 1270ETH     H1 5248   3.352   3.142   3.371  0.3443  0.0010 -1.8527
 1270ETH     H2 5249   3.476   3.235   3.438  0.0028  1.6716 -0.2822
 1270ETH     H3 5250   3.236   3.367   3.296  0.2978 -2.8152 -0.5859
 1270ETH     H4 5251   3.247   3.336   3.471 -1.2547  1.4193 -0.4963
 1270ETH     H5 5252   3.469   3.475   3.361 -0.8992  1.2634 -0.4316
 1271ETH      C 5253   2.383   5.781   2.792 -0.0043  0.0599  0.4771
 1271ETH     C1 5254   2.279   5.812   2.693  0.0352  0.9816  0.9870
 1271ETH      O 5255   2.218   5.936   2.725  0.6278  0.0135  0.0870
 1271ETH      H 5256   2.432   5.686   2.767  0.8286  0.5606  0.1463
 1271ETH     H1 5257   2.339   5.764   2.891  2.3359 -3.5179  1.1071
 1271ETH     H2 5258   2.465   5.852   2.811  1.4055 -1.3753  0.0613
 1271ETH     H3 5259   2.323   5.825   2.593 -2.8264  2.0650 -0.2621
 1271ETH     H4 5260   2.209   5.728   2.687  1.5796 -0.3075  0.1325
 1271ETH     H5 5261   2.273   6.008   2.691  0.8637 -0.1108  0.2021
 1272ETH      C 5262   2.848   2.934   1.727  0.0956 -0.5313 -0.0465
 1272ETH     C1 5263   2.791   2.899   1.864  0.3538  0.4500 -0.1108
 1272ETH      O 5264   2.718   3.007   1.915 -0.1175 -0.4079  0.4916
 1272ETH      H 5265   2.921   2.865   1.683  0.2040 -0.5495  0.1618
 1272ETH     H1 5266   2.901   3.028   1.748 -0.9466  0.0163  0.2089
 1272ETH     H2 5267   2.771   2.953   1.651  0.4192  3.6300  0.4184
 1272ETH     H3 5268   2.727   2.812   1.849  0.1366  0.0770  2.5097
 1272ETH     H4 5269   2.859   2.867   1.944 -0.3694  0.2659  0.4306
 1272ETH     H5 5270   2.639   2.967   1.957 -1.1497 -0.5597 -1.4525
 1273ETH      C 5271   4.840   2.331   2.480 -0.9497  0.2767 -0.7091
 1273ETH     C1 5272   4.833   2.179   2.524 -0.0847  0.4161 -0.1420
 1273ETH      O 5273   4.696   2.155   2.549 -0.2719  0.5482  0.1003
 1273ETH      H 5274   4.779   2.347   2.390  0.7131  0.3599 -1.8718
 1273ETH     H1 5275   4.939   2.365   2.447 -0.3064  1.0488  1.8400
 1273ETH     H2 5276   4.802   2.390   2.564  1.5934 -0.0402  0.7280
 1273ETH     H3 5277   4.868   2.108   2.448 -0.3711 -0.2672  0.3612
 1273ETH     H4 5278   4.892   2.157   2.614 -0.3098 -0.8702 -0.2880
 1273ETH     H5 5279   4.677   2.184   2.640 -0.2331  0.8407  0.0155
 1274ETH      C 5280   3.386   3.726   3.142 -0.0068  0.7188  0.6943
 1274ETH     C1 5281   3.491   3.797   3.228  0.0944 -0.3223 -0.7680
 1274ETH      O 5282   3.490   3.943   3.203  1.3472 -0.0072  0.0618
 1274ETH      H 5283   3.279   3.745   3.156 -0.7255 -1.9429 -0.4844
 1274ETH     H1 5284   3.404   3.618   3.138  0.0861  0.7785 -1.2868
 1274ETH     H2 5285   3.411   3.753   3.039 -0.3783  0.8187  0.6282
 1274ETH     H3 5286   3.471   3.785   3.335 -0.6655 -1.7461 -1.0464
 1274ETH     H4 5287   3.591   3.754   3.216  0.9206  0.4883  2.3954
 1274ETH     H5 5288   3.403   3.979   3.226  1.3674  1.1524 -1.5770
 1275ETH      C 5289   0.159   2.863   2.824  0.6495  0.2158  0.3991
 1275ETH     C1 5290   0.290   2.852   2.740 -0.4347  0.9712 -0.5004
 1275ETH      O 5291   0.399   2.898   2.821 -0.5847  0.1543  0.8771
 1275ETH      H 5292   0.072   2.833   2.763 -0.6930  0.0926  2.2712
 1275ETH     H1 5293   0.141   2.955   2.881 -0.6333 -0.4240  1.0820
 1275ETH     H2 5294   0.153   2.788   2.904 -0.6162 -0.7138 -0.5150
 1275ETH     H3 5295   0.313   2.749   2.708  2.4326  0.9572  1.2054
 1275ETH     H4 5296   0.276   2.920   2.656 -1.2859  1.4217 -0.0090
 1275ETH     H5 5297   0.477   2.844   2.800 -1.4480 -1.4621  1.6294
 1276ETH      C 5298   3.421   0.235   2.879 -0.0404  1.1269 -0.1123
 1276ETH     C1 5299   3.496   0.179   3.002 -0.0811  0.3748 -0.2691
 1276ETH      O 5300   3.489   0.273   3.111  0.5174  0.3197 -0.3858
 1276ETH      H 5301   3.326   0.285   2.901  0.4033  2.3351 -0.8395
 1276ETH     H1 5302   3.390   0.157   2.808 -3.7073  0.9825  1.4236
 1276ETH     H2 5303   3.476   0.314   2.827  0.1174  1.0772 -0.0202
 1276ETH     H3 5304   3.444   0.087   3.030  1.7136 -0.6186 -0.1107
 1276ETH     H4 5305   3.597   0.145   2.978 -1.0214 -2.2489 -0.8208
 1276ETH     H5 5306   3.401   0.314   3.115  0.0850 -0.5905 -0.4286
 1277ETH      C 5307   1.383   3.272   4.978 -0.0659 -0.5108 -0.2145
 1277ETH     C1 5308   1.492   3.166   5.020  0.3361 -0.0289  0.2187
 1277ETH      O 5309   1.582   3.144   4.910 -0.1846  0.8644 -0.3638
 1277ETH      H 5310   1.426   3.363   4.934 -2.8533  1.3087  0.5356
 1277ETH     H1 5311   1.345   3.301   5.077  0.8296 -0.6423  0.1787
 1277ETH     H2 5312   1.305   3.229   4.913  0.7721 -0.4640 -1.2728
 1277ETH     H3 5313   1.546   3.200   5.110 -0.0105  1.3026 -0.0507
 1277ETH     H4 5314   1.443   3.070   5.041  2.2506 -1.6389 -2.1229
 1277ETH     H5 5315   1.647   3.217   4.913 -1.2575  1.8464  2.4739
 1278ETH      C 5316   0.662   4.050   2.399 -0.5950 -0.3554 -0.1645
 1278ETH     C1 5317   0.759   4.022   2.289  0.3611  0.1854  0.0830
 1278ETH      O 5318   0.892   4.026   2.334  0.7366 -0.2280 -0.1192
 1278ETH      H 5319   0.668   4.152   2.437  0.6983 -0.6952  0.6073
 1278ETH     H1 5320   0.684   3.988   2.487 -0.6790  0.8072  0.6917
 1278ETH     H2 5321   0.559   4.032   2.367 -0.0910 -1.4169 -1.2619
 1278ETH     H3 5322   0.744   3.930   2.231 -0.8539  0.6138 -0.3084
 1278ETH     H4 5323   0.741   4.098   2.212  0.6100  0.9217  0.7464
 1278ETH     H5 5324   0.920   3.934   2.348 -0.7960 -0.5630  0.9646
 1279ETH      C 5325   1.929   2.523   1.471  0.2452  0.0171 -0.2401
 1279ETH     C1 5326   2.058   2.488   1.543 -0.2621 -0.1093  0.1408
 1279ETH      O 5327   2.169   2.570   1.500 -0.2456  0.3338 -1.0203
 1279ETH      H 5328   1.890   2.620   1.506 -0.5414  0.9048 -3.2923
 1279ETH     H1 5329   1.858   2.445   1.500  2.5271 -1.4616  1.6308
 1279ETH     H2 5330   1.930   2.518   1.362 -0.7581  0.5428 -0.2923
 1279ETH     H3 5331   2.041   2.506   1.650  0.3622 -0.9368  0.3857
 1279ETH     H4 5332   2.083   2.383   1.529 -0.6785 -0.1659 -0.2147
 1279ETH     H5 5333   2.213   2.550   1.415  1.4038 -1.4677  0.1608
 1280ETH      C 5334   5.125   4.027   4.231 -0.5665  0.0510 -0.1826
 1280ETH     C1 5335   5.131   3.903   4.136 -0.7677  0.7410  0.0728
 1280ETH      O 5336   5.019   3.830   4.152 -0.0988 -0.4492 -0.6464
 1280ETH      H 5337   5.027   4.074   4.240  0.0655  1.1340  1.7924
 1280ETH     H1 5338   5.186   4.110   4.196 -1.8922  1.4356  0.6654
 1280ETH     H2 5339   5.150   3.988   4.331  0.0486 -0.5211 -0.5536
 1280ETH     H3 5340   5.138   3.937   4.032 -0.5514  1.5708  0.3478
 1280ETH     H4 5341   5.221   3.845   4.164 -1.2588  0.5950  1.4062
 1280ETH     H5 5342   5.039   3.737   4.130  0.1127 -0.4405 -0.4925
 1281ETH      C 5343   4.242   3.006   2.768 -0.2065 -0.0376 -0.2062
 1281ETH     C1 5344   4.211   3.150   2.812  0.1033 -0.0224 -0.9119
 1281ETH      O 5345   4.327   3.222   2.850  0.0797  0.5203 -0.3274
 1281ETH      H 5346   4.275   2.939   2.848 -0.6501  0.3977  0.3538
 1281ETH     H1 5347   4.309   2.989   2.683  0.0350 -0.4843  0.0656
 1281ETH     H2 5348   4.146   2.970   2.730 -1.9283  1.6982  2.1392
 1281ETH     H3 5349   4.165   3.196   2.724 -2.9511 -0.1173  0.5332
 1281ETH     H4 5350   4.141   3.144   2.896  2.3975 -0.6711  1.0845
 1281ETH     H5 5351   4.380   3.225   2.769 -4.3942 -3.2232 -3.9708
 1282ETH      C 5352   0.810   2.868   4.801 -0.6109  0.1827 -0.0976
 1282ETH     C1 5353   0.790   2.908   4.660  0.4175  0.0946 -0.0342
 1282ETH      O 5354   0.857   2.820   4.572 -0.5655 -0.7258  0.8214
 1282ETH      H 5355   0.792   2.762   4.821 -0.6911  0.6283  2.5500
 1282ETH     H1 5356   0.761   2.934   4.873  1.4209  1.5773  0.0816
 1282ETH     H2 5357   0.915   2.883   4.829 -0.8709  1.8070  0.0712
 1282ETH     H3 5358   0.681   2.900   4.646  0.5601  0.8584 -1.7168
 1282ETH     H4 5359   0.820   3.010   4.634 -0.5430  0.9511  1.9624
 1282ETH     H5 5360   0.839   2.850   4.481  0.0932 -1.1092  0.5579
 1283ETH      C 5361   2.643   2.907   5.051 -0.3680  0.3141 -0.2312
 1283ETH     C1 5362   2.602   3.030   5.125 -0.0446 -0.1831 -0.4949
 1283ETH      O 5363   2.712   3.103   5.184  0.7100  0.7868  0.1964
 1283ETH      H 5364   2.566   2.871   4.981  0.6346 -0.9170 -0.7445
 1283ETH     H1 5365   2.654   2.827   5.125  0.7222  1.4771  0.9112
 1283ETH     H2 5366   2.735   2.922   4.993  1.3012  1.0962  2.4526
 1283ETH     H3 5367   2.539   3.093   5.061 -0.3711 -1.6079 -1.6321
 1283ETH     H4 5368   2.533   3.000   5.205  0.2541 -1.6338 -0.7469
 1283ETH     H5 5369   2.671   3.177   5.231  2.7583  1.7410  0.6171
 1284ETH      C 5370   1.159   3.869   2.917 -0.3511 -0.2831 -0.4146
 1284ETH     C1 5371   1.240   3.936   2.805  0.5307 -1.2177  0.6802
 1284ETH      O 5372   1.149   4.008   2.717 -0.3812  0.7195 -0.1565
 1284ETH      H 5373   1.217   3.795   2.975  0.2558 -1.3041 -2.2208
 1284ETH     H1 5374   1.087   3.794   2.883 -0.0334 -1.8604  2.1574
 1284ETH     H2 5375   1.122   3.940   2.991  0.9273  2.7174 -2.4546
 1284ETH     H3 5376   1.311   4.009   2.846 -0.6316  0.9657 -0.9451
 1284ETH     H4 5377   1.300   3.858   2.756  0.1696 -0.2884 -1.3282
 1284ETH     H5 5378   1.171   4.103   2.723  1.3532  0.5780 -2.6539
 1285ETH      C 5379   1.366   2.191   4.585  0.5731  0.0802 -0.0032
 1285ETH     C1 5380   1.478   2.092   4.554  0.0493 -0.3631 -0.2639
 1285ETH      O 5381   1.491   2.061   4.415 -0.7178 -0.5494 -0.0089
 1285ETH      H 5382   1.359   2.267   4.506 -0.7997 -2.3528 -2.3789
 1285ETH     H1 5383   1.386   2.242   4.680  0.5780  1.0761 -0.5251
 1285ETH     H2 5384   1.268   2.144   4.597  1.0052 -0.5075  1.4459
 1285ETH     H3 5385   1.562   2.154   4.589 -1.3463  1.2627  0.3631
 1285ETH     H4 5386   1.473   2.001   4.615 -2.4953 -0.6061 -0.7279
 1285ETH     H5 5387   1.502   2.144   4.365  0.9585 -0.4227  0.4836
 1286ETH      C 5388   4.925   4.189   1.579 -0.2378  0.2891 -0.5546
 1286ETH     C1 5389   5.020   4.277   1.666 -0.1140 -0.2862  0.0197
 1286ETH      O 5390   4.983   4.308   1.799  0.4635  0.2993  0.3077
 1286ETH      H 5391   4.979   4.175   1.484 -0.9423  0.3907 -0.9786
 1286ETH     H1 5392   4.826   4.231   1.561 -0.3885  0.7514  1.1846
 1286ETH     H2 5393   4.898   4.092   1.622  1.6223  0.9525  2.4065
 1286ETH     H3 5394   5.114   4.222   1.681  0.4838  0.6846 -0.1275
 1286ETH     H4 5395   5.054   4.366   1.613 -1.0589  0.2732  0.3170
 1286ETH     H5 5396   4.903   4.258   1.824 -1.5140  3.0842  0.0560
 1287ETH      C 5397   4.246   0.074   2.171  0.5175  0.0648  0.3543
 1287ETH     C1 5398   4.265  -0.062   2.238  0.4954  0.0985 -0.0281
 1287ETH      O 5399   4.399  -0.061   2.292  0.1181  0.7750 -0.2842
 1287ETH      H 5400   4.230   0.153   2.245 -1.6431  0.3175 -0.3175
 1287ETH     H1 5401   4.154   0.062   2.114  1.0635  1.2465 -0.8145
 1287ETH     H2 5402   4.335   0.103   2.113  0.3128 -0.8205 -0.4213
 1287ETH     H3 5403   4.188  -0.065   2.316 -0.4637  2.7246 -0.7427
 1287ETH     H4 5404   4.249  -0.146   2.170 -1.6981  0.7450 -0.4062
 1287ETH     H5 5405   4.466  -0.069   2.222  0.9856 -0.1476  0.6277
 1288ETH      C 5406   1.964   3.952   2.305  0.1502 -0.0571  0.7767
 1288ETH     C1 5407   1.962   4.089   2.356  0.3191 -0.8200 -0.8473
 1288ETH      O 5408   1.838   4.160   2.332  0.2535 -0.0173 -0.2255
 1288ETH      H 5409   2.009   3.952   2.205 -0.4469  0.4775  0.4990
 1288ETH     H1 5410   1.864   3.908   2.304 -0.5660  1.3366  3.2217
 1288ETH     H2 5411   2.032   3.887   2.361 -1.3336 -1.4104  1.0614
 1288ETH     H3 5412   1.977   4.077   2.464  0.1135  1.9076 -0.4471
 1288ETH     H4 5413   2.054   4.140   2.325  2.4139 -3.7223  0.0506
 1288ETH     H5 5414   1.781   4.141   2.408 -0.1781  0.7805 -0.3407
 1289ETH      C 5415   2.571   1.488   1.566  0.4918 -0.4324  0.9431
 1289ETH     C1 5416   2.567   1.634   1.516  0.1745  0.1993  0.6762
 1289ETH      O 5417   2.657   1.655   1.404  0.1631  0.4596 -0.6732
 1289ETH      H 5418   2.540   1.412   1.494 -1.7235  0.3089  1.0291
 1289ETH     H1 5419   2.515   1.485   1.661  1.0719 -2.3028  1.2748
 1289ETH     H2 5420   2.677   1.468   1.586  1.6515  4.3951  0.8222
 1289ETH     H3 5421   2.466   1.641   1.474  0.8568 -0.2135 -1.1334
 1289ETH     H4 5422   2.588   1.698   1.602  2.5449  0.4380 -0.0129
 1289ETH     H5 5423   2.714   1.577   1.395  1.2494  1.1392  0.1256
 1290ETH      C 5424   1.193   3.569   1.754  0.2611  0.8920  0.0030
 1290ETH     C1 5425   1.286   3.507   1.858  0.1997  0.1355  1.0315
 1290ETH      O 5426   1.322   3.610   1.957 -0.2244  0.2979  0.1242
 1290ETH      H 5427   1.096   3.607   1.788 -1.8453 -2.9066 -1.1333
 1290ETH     H1 5428   1.170   3.505   1.668 -2.4572  1.2026  0.4121
 1290ETH     H2 5429   1.243   3.659   1.717  1.6935 -0.5769 -1.8594
 1290ETH     H3 5430   1.235   3.420   1.902 -0.3385  0.5040  1.1410
 1290ETH     H4 5431   1.373   3.467   1.804 -1.5389  0.1322 -2.0114
 1290ETH     H5 5432   1.377   3.567   2.025  0.3890  0.9922  0.0808
 1291ETH      C 5433   4.588   5.332   2.268  0.5413  1.0561 -0.2917
 1291ETH     C1 5434   4.478   5.419   2.207 -0.3427 -0.3176 -0.3379
 1291ETH      O 5435   4.415   5.340   2.111  0.0937 -0.6041  0.2179
 1291ETH      H 5436   4.663   5.308   2.192  0.0433  3.4300 -1.6387
 1291ETH     H1 5437   4.539   5.251   2.324  3.6824 -0.4321  0.5386
 1291ETH     H2 5438   4.641   5.381   2.351 -1.7531 -0.4609  2.2619
 1291ETH     H3 5439   4.408   5.460   2.281 -2.2784  1.2790 -2.8841
 1291ETH     H4 5440   4.519   5.508   2.157 -0.2961 -0.3061 -0.2792
 1291ETH     H5 5441   4.380   5.265   2.163  0.3745 -1.0440 -0.2169
 1292ETH      C 5442   4.085   4.541   2.611  0.3465 -0.3524  0.3060
 1292ETH     C1 5443   4.174   4.555   2.730 -0.2680  0.2114  0.4034
 1292ETH      O 5444   4.205   4.432   2.782 -0.2042 -0.1578  0.3204
 1292ETH      H 5445   4.125   4.478   2.530 -2.3529 -1.8462  0.0077
 1292ETH     H1 5446   4.078   4.634   2.555 -1.1827 -0.9582 -0.5614
 1292ETH     H2 5447   3.988   4.501   2.641 -0.5125  2.1903  1.1176
 1292ETH     H3 5448   4.263   4.612   2.697 -0.0152  0.3640  1.3241
 1292ETH     H4 5449   4.124   4.611   2.809  1.0847  0.7474  0.9115
 1292ETH     H5 5450   4.288   4.395   2.750 -1.1043 -2.5379  0.5369
 1293ETH      C 5451   1.760   2.621   1.867 -0.6256  0.0878 -0.5818
 1293ETH     C1 5452   1.677   2.711   1.956  0.2685  0.1682  0.1728
 1293ETH      O 5453   1.730   2.842   1.936  0.0772  0.3733 -0.1864
 1293ETH      H 5454   1.713   2.523   1.854 -1.2069 -0.0845  2.1612
 1293ETH     H1 5455   1.860   2.607   1.909  0.3728  0.5431 -2.6509
 1293ETH     H2 5456   1.769   2.674   1.771  0.9471  0.5880 -0.1803
 1293ETH     H3 5457   1.572   2.693   1.931  0.0640 -0.2932  1.2952
 1293ETH     H4 5458   1.676   2.686   2.063 -0.4537 -0.2514  0.0754
 1293ETH     H5 5459   1.702   2.899   2.010 -1.9723 -0.7326 -0.0170
 1294ETH      C 5460   3.263   4.388   2.460 -0.3664  0.1847  0.8286
 1294ETH     C1 5461   3.393   4.311   2.502  0.2280  0.4265  0.1933
 1294ETH      O 5462   3.384   4.167   2.479 -0.3271 -0.1599  0.1872
 1294ETH      H 5463   3.252   4.491   2.495  1.3538  0.8399 -0.3925
 1294ETH     H1 5464   3.176   4.336   2.500 -2.1602 -0.3469 -3.2704
 1294ETH     H2 5465   3.249   4.387   2.351 -1.1618 -2.6957  0.8736
 1294ETH     H3 5466   3.478   4.344   2.441  1.8047 -1.2405  1.3745
 1294ETH     H4 5467   3.420   4.334   2.606 -0.4904  2.6151 -0.0544
 1294ETH     H5 5468   3.383   4.124   2.566 -1.1499 -0.3758  0.0829
 1295ETH      C 5469   3.017   1.351   4.255  0.0314  0.8739 -0.0417
 1295ETH     C1 5470   2.894   1.282   4.180  0.4968 -0.3767 -0.4595
 1295ETH      O 5471   2.764   1.342   4.225 -0.0563 -0.2611  0.0708
 1295ETH      H 5472   3.004   1.334   4.362 -3.5903  0.8971 -0.3553
 1295ETH     H1 5473   3.029   1.457   4.230  1.0573  0.6642 -0.4995
 1295ETH     H2 5474   3.108   1.303   4.216 -1.3731 -2.9679  0.9658
 1295ETH     H3 5475   2.900   1.315   4.076 -0.4343  0.6703 -0.2085
 1295ETH     H4 5476   2.889   1.174   4.203 -0.6325 -0.9453 -3.0492
 1295ETH     H5 5477   2.786   1.434   4.248 -1.9263  0.2950 -0.2483
 1296ETH      C 5478   2.357   0.588   1.965 -0.2058 -0.8260 -0.1396
 1296ETH     C1 5479   2.352   0.670   2.084  0.2639 -0.5487  0.1182
 1296ETH      O 5480   2.272   0.788   2.059 -0.3045 -0.0374 -0.0144
 1296ETH      H 5481   2.398   0.641   1.878  0.4617 -0.8849  0.1386
 1296ETH     H1 5482   2.255   0.556   1.938 -0.7902 -2.0352  3.1373
 1296ETH     H2 5483   2.419   0.500   1.983 -1.1605 -1.7541 -1.1808
 1296ETH     H3 5484   2.307   0.623   2.172 -1.8188  2.6109  0.9124
 1296ETH     H4 5485   2.454   0.707   2.098  0.2478 -0.2691 -0.4449
 1296ETH     H5 5486   2.300   0.846   2.132  0.0633  1.0459 -0.9841
 1297ETH      C 5487   3.602   0.366   3.398  0.0059 -0.0240  0.2165
 1297ETH     C1 5488   3.445   0.353   3.403  0.0096 -0.4147 -0.0623
 1297ETH      O 5489   3.386   0.481   3.381  0.1678  0.2242  0.0528
 1297ETH      H 5490   3.633   0.447   3.466  0.5835  0.8852 -1.0733
 1297ETH     H1 5491   3.646   0.406   3.305  2.9042  2.6391  2.4972
 1297ETH     H2 5492   3.661   0.278   3.424 -1.7458 -1.4201 -0.3844
 1297ETH     H3 5493   3.401   0.281   3.333  0.0454  1.9583 -2.6955
 1297ETH     H4 5494   3.422   0.318   3.504  1.3188  0.2376  0.4824
 1297ETH     H5 5495   3.419   0.539   3.452  1.5003 -0.0207 -0.3394
 1298ETH      C 5496   2.632   4.187   3.729  0.7115  0.0566 -0.6567
 1298ETH     C1 5497   2.689   4.195   3.590  0.3729 -0.6688  0.3798
 1298ETH      O 5498   2.773   4.081   3.569 -0.5353  0.0591 -0.3712
 1298ETH      H 5499   2.587   4.089   3.750  0.3880  0.4011  0.3195
 1298ETH     H1 5500   2.552   4.259   3.747 -0.7238 -1.4785 -0.6123
 1298ETH     H2 5501   2.691   4.219   3.816  0.5125 -0.6489 -0.2471
 1298ETH     H3 5502   2.605   4.196   3.519 -1.3060 -0.5269  2.2873
 1298ETH     H4 5503   2.749   4.287   3.581 -1.5945  0.5633 -0.9537
 1298ETH     H5 5504   2.732   4.010   3.518  0.2483 -1.4547  0.9950
 1299ETH      C 5505   2.194   3.170   3.998 -0.2443  0.2292 -0.2293
 1299ETH     C1 5506   2.258   3.054   4.075 -0.0451 -0.1459 -0.0850
 1299ETH      O 5507   2.396   3.047   4.044 -0.1628  0.0007 -0.0766
 1299ETH      H 5508   2.168   3.144   3.895  1.4363 -2.7197 -0.0145
 1299ETH     H1 5509   2.264   3.255   3.995 -1.1047  0.9673 -2.8187
 1299ETH     H2 5510   2.098   3.198   4.041 -1.1374 -1.6370 -0.9149
 1299ETH     H3 5511   2.248   3.076   4.182  0.9967  2.8026 -0.5063
 1299ETH     H4 5512   2.207   2.959   4.053 -0.8393 -0.2872  2.1197
 1299ETH     H5 5513   2.446   3.008   4.118 -2.9278 -0.6630  1.5841
 1300ETH      C 5514   1.642   0.750   2.742 -0.4411  0.3369  0.3565
 1300ETH     C1 5515   1.785   0.699   2.780 -1.3952 -0.0617 -0.0634
 1300ETH      O 5516   1.872   0.810   2.771 -0.0716  0.1148 -0.0412
 1300ETH      H 5517   1.598   0.820   2.814  0.2220  2.6364 -1.3795
 1300ETH     H1 5518   1.579   0.663   2.720 -0.6864  0.5985  0.0228
 1300ETH     H2 5519   1.645   0.793   2.642 -2.4493  0.6736  0.4072
 1300ETH     H3 5520   1.781   0.661   2.883  0.4743 -0.5974 -0.1620
 1300ETH     H4 5521   1.814   0.625   2.704 -0.8192  0.9666 -0.8780
 1300ETH     H5 5522   1.818   0.887   2.795 -0.5290  0.2265 -1.3583
 1301ETH      C 5523   3.563   3.395   4.116 -0.3541  0.0730  0.6365
 1301ETH     C1 5524   3.568   3.451   3.971 -0.5824  0.4356 -1.2447
 1301ETH      O 5525   3.668   3.553   3.966  0.1102  0.6745  0.4313
 1301ETH      H 5526   3.538   3.471   4.192  0.3839  1.2141 -0.2302
 1301ETH     H1 5527   3.658   3.342   4.134 -0.2214 -0.6476 -1.8420
 1301ETH     H2 5528   3.486   3.317   4.109 -0.3347  0.1607 -0.8850
 1301ETH     H3 5529   3.591   3.368   3.904 -0.2667  1.1771 -2.0742
 1301ETH     H4 5530   3.473   3.496   3.938 -1.0193  0.0375 -0.5508
 1301ETH     H5 5531   3.711   3.540   3.880 -0.0820  0.0126  0.4320
 1302ETH      C 5532   2.056   4.172   4.073 -0.4464 -0.5716  0.2102
 1302ETH     C1 5533   2.080   4.110   3.933 -0.4375  0.2691 -0.6387
 1302ETH      O 5534   1.963   4.037   3.894 -0.3369 -0.1417 -0.2388
 1302ETH      H 5535   2.047   4.091   4.147 -0.6834  0.0361  0.8627
 1302ETH     H1 5536   1.964   4.231   4.071 -0.6548 -0.8803  0.4278
 1302ETH     H2 5537   2.142   4.236   4.097 -1.4713  1.1892 -0.6483
 1302ETH     H3 5538   2.095   4.186   3.856 -2.4102 -0.8765 -2.2530
 1302ETH     H4 5539   2.173   4.053   3.931 -1.0397 -0.7422 -2.4993
 1302ETH     H5 5540   1.965   3.960   3.953  2.2474 -0.0893 -0.1501
 1303ETH      C 5541   5.559   2.690   2.430  0.6331  0.2022 -0.5363
 1303ETH     C1 5542   5.557   2.805   2.531  0.3858  0.6575 -0.3444
 1303ETH      O 5543   5.536   2.757   2.665 -0.6166 -0.1222 -0.1006
 1303ETH      H 5544   5.560   2.725   2.327 -1.6128 -1.4941 -1.2222
 1303ETH     H1 5545   5.473   2.628   2.458  1.1310  0.8921  3.1300
 1303ETH     H2 5546   5.649   2.633   2.457  1.7333  1.9628 -0.3050
 1303ETH     H3 5547   5.653   2.858   2.526  0.1528  1.0951 -0.2511
 1303ETH     H4 5548   5.475   2.872   2.504  0.4528  0.2722 -1.5674
 1303ETH     H5 5549   5.583   2.823   2.718  0.8958 -0.2386 -1.2018
 1304ETH      C 5550   2.421   4.633   2.037 -0.0607 -0.4747  0.3317
 1304ETH     C1 5551   2.568   4.613   2.048 -0.9518 -0.4203  0.8923
 1304ETH      O 5552   2.627   4.727   2.114  0.7525 -0.3142 -0.6035
 1304ETH      H 5553   2.382   4.680   2.128 -0.7367  1.2305 -0.7843
 1304ETH     H1 5554   2.379   4.532   2.025 -0.0515 -0.3997 -0.4088
 1304ETH     H2 5555   2.400   4.690   1.946  0.0193 -0.4147  0.3502
 1304ETH     H3 5556   2.596   4.518   2.094 -0.0490 -0.9288 -0.6531
 1304ETH     H4 5557   2.616   4.599   1.951  1.3660  3.0980  1.3084
 1304ETH     H5 5558   2.612   4.797   2.048  0.8669 -1.3179 -1.7356
 1305ETH      C 5559   3.543   1.806   1.410 -0.4461 -0.6351 -0.2026
 1305ETH     C1 5560   3.549   1.792   1.256 -0.0726 -0.4253 -0.2686
 1305ETH      O 5561   3.448   1.882   1.213 -0.7622  0.3304  0.4300
 1305ETH      H 5562   3.626   1.751   1.456  1.4444  3.2616  1.5318
 1305ETH     H1 5563   3.442   1.800   1.451 -1.1855  0.4033 -1.7593
 1305ETH     H2 5564   3.583   1.908   1.424  0.1642 -0.7368 -1.1160
 1305ETH     H3 5565   3.641   1.829   1.211 -0.6384  0.7758 -0.4851
 1305ETH     H4 5566   3.539   1.687   1.225  1.3532 -0.1601 -1.7161
 1305ETH     H5 5567   3.380   1.872   1.282  1.1236 -0.5693  2.2542
 1306ETH      C 5568   2.466   4.131   4.219  0.7067 -0.9938  0.0380
 1306ETH     C1 5569   2.431   4.037   4.101  0.1634  0.1099  0.2833
 1306ETH      O 5570   2.367   3.922   4.156 -0.0702 -0.6484 -0.2081
 1306ETH      H 5571   2.542   4.085   4.284  0.8118  1.1123  1.4849
 1306ETH     H1 5572   2.378   4.158   4.278 -1.1159 -2.7012 -1.7659
 1306ETH     H2 5573   2.512   4.225   4.185 -1.1978 -0.1854 -0.4477
 1306ETH     H3 5574   2.365   4.085   4.028  0.3858  0.6039  0.3991
 1306ETH     H4 5575   2.519   3.994   4.051 -0.4920 -0.6145 -0.2539
 1306ETH     H5 5576   2.425   3.845   4.148 -0.7446 -1.1550 -0.3107
 1307ETH      C 5577   4.710   2.587   1.634 -0.3942  0.0993  0.2633
 1307ETH     C1 5578   4.629   2.687   1.563  0.4580  0.1390 -0.2179
 1307ETH      O 5579   4.612   2.798   1.653 -0.3257  0.3304 -0.2151
 1307ETH      H 5580   4.657   2.543   1.719  0.1751 -0.0323  0.5502
 1307ETH     H1 5581   4.802   2.631   1.672 -0.2018  0.3155 -0.4351
 1307ETH     H2 5582   4.739   2.510   1.561  1.5468 -1.1973  2.2981
 1307ETH     H3 5583   4.695   2.714   1.479 -1.8957  0.4107 -2.0725
 1307ETH     H4 5584   4.531   2.649   1.532  1.2128 -2.0858 -0.0076
 1307ETH     H5 5585   4.569   2.751   1.726  0.2020  0.8714  0.4624
 1308ETH      C 5586   5.000   1.483   3.344  0.6910 -0.2989 -0.7438
 1308ETH     C1 5587   4.913   1.595   3.276 -0.3558 -0.0141  0.2732
 1308ETH      O 5588   4.857   1.548   3.161  0.6341 -0.0611  0.1540
 1308ETH      H 5589   5.090   1.470   3.282  2.4739 -0.3635  1.7394
 1308ETH     H1 5590   4.943   1.391   3.361  4.8079 -3.0899 -0.5378
 1308ETH     H2 5591   5.026   1.515   3.445  1.4309  2.6239 -1.7556
 1308ETH     H3 5592   4.839   1.633   3.347  0.4164 -0.5684  1.4131
 1308ETH     H4 5593   4.985   1.677   3.261  0.0588 -0.5200 -0.5529
 1308ETH     H5 5594   4.813   1.621   3.113 -1.7270 -1.4897 -0.0219
 1309ETH      C 5595   3.049   4.694   0.944  0.4064  0.0103 -0.4043
 1309ETH     C1 5596   2.961   4.658   0.820 -0.1444 -0.9978 -0.8445
 1309ETH      O 5597   2.853   4.572   0.855 -0.2535 -0.2543 -0.8803
 1309ETH      H 5598   3.109   4.783   0.925 -1.0769  1.5451  1.6071
 1309ETH     H1 5599   3.113   4.608   0.966  1.4939  0.7783 -0.4755
 1309ETH     H2 5600   2.993   4.714   1.036  0.8459  0.4932 -0.2381
 1309ETH     H3 5601   2.922   4.756   0.789  0.2373  0.1741  2.0331
 1309ETH     H4 5602   3.020   4.612   0.740  0.6294  0.4477 -1.1368
 1309ETH     H5 5603   2.897   4.486   0.866  0.3910  0.1846  0.0998
 1310ETH      C 5604   3.818   2.268   2.210  0.1644 -0.3110  0.2363
 1310ETH     C1 5605   3.670   2.253   2.162 -0.3715 -0.1806 -0.0403
 1310ETH      O 5606   3.657   2.230   2.023 -0.0064  1.0576  0.2374
 1310ETH      H 5607   3.862   2.357   2.163 -0.7064  0.6825  1.2480
 1310ETH     H1 5608   3.871   2.177   2.178  0.5218 -0.3310  0.8688
 1310ETH     H2 5609   3.814   2.273   2.319  0.5919  0.5051  0.2200
 1310ETH     H3 5610   3.614   2.174   2.214  0.5329 -1.2429 -0.6263
 1310ETH     H4 5611   3.621   2.349   2.182  1.7124  1.0094 -0.2743
 1310ETH     H5 5612   3.737   2.268   1.982  0.2827  0.6208  0.3839
 1311ETH      C 5613   2.355   3.937   3.571 -0.0811  0.1307 -0.2947
 1311ETH     C1 5614   2.265   3.914   3.694  0.2388 -0.4842  1.1909
 1311ETH      O 5615   2.310   3.811   3.766  0.1367  0.2308  0.6719
 1311ETH      H 5616   2.313   4.024   3.520 -1.4370 -0.2893  0.0628
 1311ETH     H1 5617   2.348   3.850   3.505  3.2123 -0.1911 -0.3810
 1311ETH     H2 5618   2.458   3.957   3.602  0.4253  0.7811 -2.2609
 1311ETH     H3 5619   2.258   4.005   3.754  0.8063  1.9616 -2.1968
 1311ETH     H4 5620   2.165   3.888   3.656  1.5267 -1.2764 -2.0455
 1311ETH     H5 5621   2.242   3.787   3.831  0.3751  0.3007  0.9540
 1312ETH      C 5622   3.238   3.465   4.355 -0.4098 -0.4022  0.1776
 1312ETH     C1 5623   3.143   3.370   4.284  0.3240  0.1450 -0.7549
 1312ETH      O 5624   3.221   3.291   4.198 -0.0128  0.1959 -0.0205
 1312ETH      H 5625   3.177   3.546   4.396 -1.5966 -0.4732 -1.3392
 1312ETH     H1 5626   3.310   3.516   4.290 -0.6252  1.6337  1.4477
 1312ETH     H2 5627   3.294   3.418   4.437 -0.5560  1.0784  1.1652
 1312ETH     H3 5628   3.097   3.305   4.359  1.7457  0.0421  0.0682
 1312ETH     H4 5629   3.062   3.422   4.232 -0.4492 -1.0266 -0.7525
 1312ETH     H5 5630   3.282   3.242   4.256 -0.2099  0.5615  0.4997
 1313ETH      C 5631   4.036   3.513   0.932 -0.2413 -0.5096 -0.1105
 1313ETH     C1 5632   3.892   3.491   0.980 -0.0512 -0.6659  0.6681
 1313ETH      O 5633   3.862   3.569   1.093  0.1948 -0.0622  0.2564
 1313ETH      H 5634   4.067   3.613   0.899 -1.4544 -0.5386 -1.4311
 1313ETH     H1 5635   4.068   3.445   0.853  1.5711  0.7165 -0.4983
 1313ETH     H2 5636   4.109   3.493   1.011 -0.8036 -0.2403  0.4882
 1313ETH     H3 5637   3.822   3.509   0.898  1.5524 -0.1862 -0.6682
 1313ETH     H4 5638   3.886   3.384   1.004 -1.3629 -0.9263 -0.6491
 1313ETH     H5 5639   3.769   3.596   1.098 -0.4094 -1.8132 -0.8822
 1314ETH      C 5640   2.707   2.788   3.449 -0.2448 -0.1754 -0.3393
 1314ETH     C1 5641   2.650   2.671   3.367 -0.2931 -0.4648  0.7589
 1314ETH      O 5642   2.558   2.726   3.275 -0.0939  0.2270 -0.1684
 1314ETH      H 5643   2.774   2.739   3.521 -0.5464  1.3216  1.0213
 1314ETH     H1 5644   2.634   2.821   3.524  1.0188  1.2759  0.3007
 1314ETH     H2 5645   2.748   2.871   3.391 -0.2322  0.2934  0.3341
 1314ETH     H3 5646   2.735   2.629   3.310  0.3990 -1.7740  2.6637
 1314ETH     H4 5647   2.606   2.587   3.421  0.8093  0.1702  2.7344
 1314ETH     H5 5648   2.525   2.653   3.219  1.8695 -0.8626  0.0026
 1315ETH      C 5649   3.596   4.574   3.189 -0.6637 -0.0954 -0.5308
 1315ETH     C1 5650   3.592   4.469   3.299 -0.9857  0.4155 -0.1082
 1315ETH      O 5651   3.660   4.352   3.265 -0.4475  0.3685  0.0448
 1315ETH      H 5652   3.694   4.565   3.141 -0.4127 -2.8926  0.3214
 1315ETH     H1 5653   3.594   4.674   3.234 -1.0948  1.5463 -3.8122
 1315ETH     H2 5654   3.519   4.569   3.110 -0.8777  0.0686 -0.3334
 1315ETH     H3 5655   3.649   4.517   3.379  0.8725  2.2064 -2.3821
 1315ETH     H4 5656   3.489   4.451   3.335 -1.0161  1.8262  0.5812
 1315ETH     H5 5657   3.640   4.295   3.341 -0.1828  0.1108 -0.0792
 1316ETH      C 5658   3.463   1.738   3.621  0.0160 -0.1327  0.7987
 1316ETH     C1 5659   3.575   1.685   3.713  0.0235 -0.6047  0.3313
 1316ETH      O 5660   3.599   1.549   3.707 -0.0307  0.3691  0.4314
 1316ETH      H 5661   3.458   1.847   3.634  2.9832  0.3377 -1.1637
 1316ETH     H1 5662   3.366   1.692   3.644  0.0582 -0.8146 -0.3619
 1316ETH     H2 5663   3.499   1.706   3.523  1.3469  1.3247  0.7673
 1316ETH     H3 5664   3.664   1.741   3.683  0.8010 -2.1770 -0.3580
 1316ETH     H4 5665   3.549   1.711   3.817  2.0013  1.1539  0.4436
 1316ETH     H5 5666   3.664   1.534   3.778  0.8710 -1.6899 -0.7423
 1317ETH      C 5667   2.087   0.464   2.347  0.6960 -0.7911  0.1669
 1317ETH     C1 5668   2.054   0.394   2.480  0.0949  0.1093  0.8547
 1317ETH      O 5669   2.091   0.259   2.481  0.0877  0.5420 -0.0145
 1317ETH      H 5670   2.051   0.567   2.363 -1.2669 -1.3280 -0.4351
 1317ETH     H1 5671   2.029   0.417   2.267 -0.9152 -0.2890  0.9803
 1317ETH     H2 5672   2.192   0.459   2.317  1.6216 -2.3513  3.3242
 1317ETH     H3 5673   2.097   0.448   2.566 -0.3921  1.2518  0.4025
 1317ETH     H4 5674   1.945   0.402   2.496 -0.1413 -0.2300 -0.4773
 1317ETH     H5 5675   2.099   0.221   2.570 -2.2311 -0.3633 -0.1153
 1318ETH      C 5676   3.655   1.738   3.252 -0.6836 -0.6520 -0.4248
 1318ETH     C1 5677   3.527   1.671   3.215  0.2345  0.3716  0.2537
 1318ETH      O 5678   3.476   1.740   3.106  0.2280  0.1544 -0.2250
 1318ETH      H 5679   3.696   1.687   3.340  1.0886 -1.9792 -1.9551
 1318ETH     H1 5680   3.635   1.845   3.264 -1.6990 -0.8207 -0.5061
 1318ETH     H2 5681   3.718   1.729   3.163  0.9908  1.8249  0.4275
 1318ETH     H3 5682   3.528   1.564   3.192 -0.3781  0.7347 -1.5749
 1318ETH     H4 5683   3.457   1.673   3.300  0.2298  0.6707  0.2451
 1318ETH     H5 5684   3.379   1.729   3.104  0.2874 -0.3137 -2.1611
 1319ETH      C 5685   3.737   4.834   3.549 -0.7326  0.0788 -0.0033
 1319ETH     C1 5686   3.687   4.833   3.697  0.6287 -0.2217  0.2720
 1319ETH      O 5687   3.794   4.883   3.777  0.3025  0.0558  0.7674
 1319ETH      H 5688   3.829   4.775   3.540  0.3228  1.1758  2.4657
 1319ETH     H1 5689   3.773   4.930   3.511  1.0213 -0.3279  0.5169
 1319ETH     H2 5690   3.665   4.791   3.478 -0.6878  1.1297 -0.7049
 1319ETH     H3 5691   3.600   4.898   3.707  0.0743 -1.0501  1.0497
 1319ETH     H4 5692   3.674   4.729   3.729  0.8531  0.3570  2.3715
 1319ETH     H5 5693   3.840   4.954   3.730 -4.5144  0.9148 -3.4543
 1320ETH      C 5694   2.619   0.093   3.070 -0.3869  0.4246 -0.2147
 1320ETH     C1 5695   2.717   0.126   3.185  0.5536  0.3860 -0.1124
 1320ETH      O 5696   2.809   0.021   3.200 -0.3624 -0.5797  0.3723
 1320ETH      H 5697   2.554   0.178   3.046  0.4377  0.4849 -2.4891
 1320ETH     H1 5698   2.559   0.004   3.093 -1.3205  1.1575  0.2728
 1320ETH     H2 5699   2.673   0.083   2.975  0.8757 -1.3869  0.6220
 1320ETH     H3 5700   2.767   0.222   3.167 -0.8561  0.8007 -2.3017
 1320ETH     H4 5701   2.657   0.138   3.276  2.7154  0.4322  1.3908
 1320ETH     H5 5702   2.769  -0.047   3.143  1.5194  0.6403 -2.6708
 1321ETH      C 5703   4.880   0.054   3.489  0.0667  0.0614  0.0033
 1321ETH     C1 5704   4.728   0.053   3.467 -0.3774 -0.0059  0.5628
 1321ETH      O 5705   4.696   0.174   3.396  0.1737  0.4837 -0.4474
 1321ETH      H 5706   4.916  -0.036   3.541 -0.1585  0.0782  0.1891
 1321ETH     H1 5707   4.907   0.139   3.553 -1.2716 -0.0360  0.7340
 1321ETH     H2 5708   4.934   0.063   3.394 -1.3897 -0.3213 -0.8880
 1321ETH     H3 5709   4.705  -0.043   3.418  1.3506 -1.4682  2.4546
 1321ETH     H4 5710   4.678   0.051   3.564 -2.0715 -1.3368 -0.2780
 1321ETH     H5 5711   4.630   0.155   3.327  1.0274 -1.0630 -0.8906
 1322ETH      C 5712   3.078   2.317   0.118 -0.5362 -0.9303  0.2045
 1322ETH     C1 5713   3.070   2.328   0.272  0.2281 -0.5223 -0.3791
 1322ETH      O 5714   3.078   2.462   0.309 -0.0182  0.2567  0.6194
 1322ETH      H 5715   3.001   2.373   0.064  1.7062 -0.0033 -2.2360
 1322ETH     H1 5716   3.085   2.212   0.087  3.8737 -0.8715  0.4046
 1322ETH     H2 5717   3.168   2.368   0.083 -0.2081 -1.0364  0.8683
 1322ETH     H3 5718   2.971   2.292   0.303 -0.1310  2.5487  2.6172
 1322ETH     H4 5719   3.152   2.266   0.311  1.3050  1.8074  1.2796
 1322ETH     H5 5720   3.097   2.452   0.403  0.7181 -1.1081  0.3431
 1323ETH      C 5721   1.330   3.911   3.973 -0.3901  0.3508  0.5136
 1323ETH     C1 5722   1.413   4.005   4.067 -0.5257 -0.9296 -0.2144
 1323ETH      O 5723   1.495   4.083   3.980 -0.1863  0.0306  0.0485
 1323ETH      H 5724   1.285   3.827   4.026  2.6320  0.0054  2.7796
 1323ETH     H1 5725   1.381   3.872   3.884 -0.2865  0.5220  0.4968
 1323ETH     H2 5726   1.247   3.965   3.927 -0.1689  0.1507 -0.1337
 1323ETH     H3 5727   1.348   4.065   4.132  0.9048  0.5160 -0.0838
 1323ETH     H4 5728   1.477   3.936   4.123  2.4615  0.1916 -2.0385
 1323ETH     H5 5729   1.554   4.013   3.948  0.7158  1.6645 -2.0562
 1324ETH      C 5730   2.714   2.476   0.068 -0.1713  0.2923 -0.8639
 1324ETH     C1 5731   2.618   2.595   0.090  0.0487  0.0514 -0.0073
 1324ETH      O 5732   2.603   2.621   0.233  0.0625  0.5900  0.2502
 1324ETH      H 5733   2.801   2.486   0.133 -1.1401 -1.4794  0.8100
 1324ETH     H1 5734   2.744   2.476  -0.038 -1.4817  0.1640 -1.2548
 1324ETH     H2 5735   2.676   2.373   0.075 -1.6761  0.7932 -1.1303
 1324ETH     H3 5736   2.654   2.687   0.042 -0.1575 -0.0470 -0.3583
 1324ETH     H4 5737   2.520   2.576   0.044 -1.2513  0.0859  2.5608
 1324ETH     H5 5738   2.693   2.621   0.268 -0.3366 -0.5615  1.3414
 1325ETH      C 5739   1.845   2.989   5.742 -0.2634 -0.2944  0.6108
 1325ETH     C1 5740   1.921   2.930   5.623  0.3384 -0.1961 -0.1392
 1325ETH      O 5741   1.860   2.964   5.503 -0.1804  0.1392  0.7673
 1325ETH      H 5742   1.739   2.960   5.739 -0.7082  1.2187 -2.1964
 1325ETH     H1 5743   1.855   3.098   5.735  0.8000 -0.4650 -0.9005
 1325ETH     H2 5744   1.894   2.952   5.833 -0.3799  0.4306  0.9828
 1325ETH     H3 5745   2.029   2.945   5.623  0.2931  0.1681  0.2899
 1325ETH     H4 5746   1.911   2.821   5.632 -0.1390 -0.2109 -0.8170
 1325ETH     H5 5747   1.892   2.900   5.438  1.2746  2.4781 -1.0193
 1326ETH      C 5748   5.337   2.812   4.673  0.3522 -0.5161 -0.4925
 1326ETH     C1 5749   5.425   2.715   4.739  0.3918  0.3731  0.3671
 1326ETH      O 5750   5.549   2.711   4.672 -0.2556  0.3318  0.5477
 1326ETH      H 5751   5.383   2.911   4.663  0.5915 -0.6830 -1.0952
 1326ETH     H1 5752   5.243   2.823   4.728  1.0149 -0.5858  0.6843
 1326ETH     H2 5753   5.301   2.774   4.576 -0.1950 -2.0751  0.2946
 1326ETH     H3 5754   5.448   2.732   4.845 -1.2054 -1.4318  1.0651
 1326ETH     H4 5755   5.383   2.614   4.734  1.3949 -0.0078 -0.6957
 1326ETH     H5 5756   5.600   2.793   4.685  3.3756 -1.9318  2.3931
 1327ETH      C 5757   1.915   0.896   3.694 -0.0722 -0.0536  1.4202
 1327ETH     C1 5758   1.918   0.869   3.544 -0.3312  0.2140 -0.6411
 1327ETH      O 5759   1.926   1.000   3.484 -0.5314 -0.0458 -0.4024
 1327ETH      H 5760   1.814   0.907   3.735 -1.5072 -0.7102 -1.6499
 1327ETH     H1 5761   1.977   0.980   3.726 -0.8646  0.5607  1.3547
 1327ETH     H2 5762   1.950   0.803   3.741  2.4898 -0.6033 -1.2441
 1327ETH     H3 5763   2.002   0.806   3.514  0.7524  2.0300 -1.5659
 1327ETH     H4 5764   1.824   0.819   3.516  0.1356 -0.8184 -0.3892
 1327ETH     H5 5765   1.980   1.057   3.541 -1.3782  0.9456 -0.5698
 1328ETH      C 5766   3.713   1.980   0.906 -0.3236 -0.3930  0.5851
 1328ETH     C1 5767   3.781   2.122   0.923  0.0818  0.0358  0.6015
 1328ETH      O 5768   3.840   2.128   1.054  0.0511  0.7373 -0.5504
 1328ETH      H 5769   3.636   1.984   0.828  2.4066 -0.7850 -2.3614
 1328ETH     H1 5770   3.660   1.937   0.992  0.6143 -0.1775  1.2914
 1328ETH     H2 5771   3.789   1.908   0.872 -0.7473 -1.0336  0.9922
 1328ETH     H3 5772   3.860   2.131   0.848 -0.3220 -0.3529  0.1229
 1328ETH     H4 5773   3.709   2.203   0.908  0.0473  0.1859  1.4953
 1328ETH     H5 5774   3.765   2.090   1.102  0.0010 -0.7458 -1.7144
 1329ETH      C 5775   3.338   3.270   5.623 -0.5056  0.4813  0.2425
 1329ETH     C1 5776   3.203   3.279   5.551  0.2829 -0.7666 -0.2819
 1329ETH      O 5777   3.099   3.287   5.654 -0.0774 -0.7596 -0.2231
 1329ETH      H 5778   3.349   3.352   5.694  1.4331  1.7286 -1.3651
 1329ETH     H1 5779   3.419   3.282   5.550 -1.6123 -1.7871 -1.4939
 1329ETH     H2 5780   3.351   3.175   5.677  1.3011  1.6307  1.9456
 1329ETH     H3 5781   3.202   3.370   5.490  2.1164  1.1322  2.2642
 1329ETH     H4 5782   3.192   3.190   5.487  0.3626 -0.8539 -0.1756
 1329ETH     H5 5783   3.109   3.379   5.683  3.4787 -1.3760  0.9788
 1330ETH      C 5784   2.118   0.433   3.091  0.1424  0.3172 -0.7131
 1330ETH     C1 5785   2.190   0.298   3.057  0.0553 -0.0259  0.7114
 1330ETH      O 5786   2.308   0.296   3.135  0.1918  0.1264  0.4545
 1330ETH      H 5787   2.197   0.509   3.094  1.1759 -0.6616  2.9866
 1330ETH     H1 5788   2.057   0.426   3.182  0.4719  1.8780 -0.3420
 1330ETH     H2 5789   2.036   0.458   3.023 -1.3516 -1.5981  0.2887
 1330ETH     H3 5790   2.115   0.218   3.057 -2.1921  1.9008 -1.2327
 1330ETH     H4 5791   2.217   0.314   2.952 -1.7702 -0.3015  0.1619
 1330ETH     H5 5792   2.276   0.282   3.226  0.6501  1.1735  0.7864
 1331ETH      C 5793   2.141   5.316   1.882 -0.2894 -0.1914  0.6779
 1331ETH     C1 5794   2.134   5.178   1.821  0.0393  0.2006 -0.0361
 1331ETH      O 5795   2.249   5.121   1.871 -0.1004 -0.2554  0.5201
 1331ETH      H 5796   2.158   5.320   1.990 -0.8822 -0.3194  0.7773
 1331ETH     H1 5797   2.044   5.365   1.870  0.7883  2.4361  1.9874
 1331ETH     H2 5798   2.214   5.381   1.833  0.5160 -0.5749  1.3437
 1331ETH     H3 5799   2.041   5.127   1.848  0.0038  0.3797  0.1788
 1331ETH     H4 5800   2.134   5.170   1.711  0.6459 -1.9756  0.0780
 1331ETH     H5 5801   2.240   5.108   1.967  1.9051  0.2664  0.8304
 1332ETH      C 5802   2.855   3.393   0.317 -0.3963 -0.1774 -0.3657
 1332ETH     C1 5803   2.956   3.381   0.429 -0.8196 -0.6108 -0.3543
 1332ETH      O 5804   3.056   3.287   0.384 -0.5678 -0.0186 -0.4289
 1332ETH      H 5805   2.798   3.303   0.293  0.3995  0.3789 -5.4437
 1332ETH     H1 5806   2.903   3.422   0.223  1.0571 -5.0564 -1.4043
 1332ETH     H2 5807   2.790   3.473   0.355 -0.7244 -0.7599  0.3274
 1332ETH     H3 5808   2.998   3.479   0.453  2.8843 -2.0529 -0.2935
 1332ETH     H4 5809   2.918   3.348   0.527  0.7699  0.7768  0.7755
 1332ETH     H5 5810   3.027   3.198   0.411  1.8230 -0.5959  0.5053
 1333ETH      C 5811   3.152   1.983   0.626  0.5065 -0.0081 -0.4188
 1333ETH     C1 5812   3.296   1.969   0.611  0.6422  0.5488 -0.0626
 1333ETH      O 5813   3.363   2.050   0.713 -0.2029 -0.0444  0.2692
 1333ETH      H 5814   3.103   1.928   0.545 -1.1137  0.4204  0.2407
 1333ETH     H1 5815   3.109   2.083   0.614 -0.5745 -0.5435 -1.1582
 1333ETH     H2 5816   3.124   1.937   0.721  2.6146 -0.1898  0.1631
 1333ETH     H3 5817   3.328   1.867   0.634  0.7309  0.5179 -0.3233
 1333ETH     H4 5818   3.323   2.009   0.512  0.9588 -0.6729 -0.4849
 1333ETH     H5 5819   3.345   2.016   0.802  1.9644 -2.5568 -0.1320
 1334ETH      C 5820   3.310   0.048   1.224  0.4060 -0.1283 -0.0377
 1334ETH     C1 5821   3.367  -0.091   1.222 -0.8704 -0.1124  0.2862
 1334ETH      O 5822   3.433  -0.120   1.343 -0.0060  0.1903 -0.4683
 1334ETH      H 5823   3.382   0.128   1.200  0.4157 -0.2930 -0.5656
 1334ETH     H1 5824   3.258   0.072   1.318  0.3236  2.6429 -0.6884
 1334ETH     H2 5825   3.241   0.050   1.138  2.6658 -0.7183 -1.9790
 1334ETH     H3 5826   3.286  -0.163   1.206 -1.2665  0.6440 -1.3503
 1334ETH     H4 5827   3.425  -0.104   1.130 -0.6525  0.1977  0.3768
 1334ETH     H5 5828   3.376  -0.189   1.382 -1.5175  1.1968 -0.7859
 1335ETH      C 5829   1.317   1.911   4.128  0.1679  0.5385 -0.5440
 1335ETH     C1 5830   1.435   1.814   4.155 -0.5810 -0.2962  0.9231
 1335ETH      O 5831   1.453   1.791   4.291 -0.7035  0.3112  0.0236
 1335ETH      H 5832   1.336   1.979   4.045 -1.3381  0.8269 -0.6796
 1335ETH     H1 5833   1.307   1.976   4.215  1.7760  0.7202 -0.4680
 1335ETH     H2 5834   1.227   1.851   4.111  1.3582 -0.4486 -4.4365
 1335ETH     H3 5835   1.403   1.724   4.102 -2.7342  1.2864 -0.6334
 1335ETH     H4 5836   1.526   1.852   4.105 -0.8221 -0.8751  0.0152
 1335ETH     H5 5837   1.463   1.874   4.341  0.8063 -0.3519  0.9002
 1336ETH      C 5838   1.321   3.681   4.573  0.0397 -0.1445  0.0540
 1336ETH     C1 5839   1.267   3.548   4.631 -0.1435 -0.4499  0.1222
 1336ETH      O 5840   1.335   3.433   4.579 -0.4824 -0.6737 -0.3898
 1336ETH      H 5841   1.276   3.775   4.606 -1.4264 -0.4080 -1.0923
 1336ETH     H1 5842   1.308   3.689   4.465 -1.6088  2.1069  0.3627
 1336ETH     H2 5843   1.428   3.686   4.600  0.1986 -1.2003 -0.3363
 1336ETH     H3 5844   1.265   3.543   4.741 -1.2500 -0.7020  0.1115
 1336ETH     H4 5845   1.160   3.542   4.604 -0.4523  1.4858  0.7701
 1336ETH     H5 5846   1.423   3.444   4.618 -0.0842  1.8314 -1.7887
 1337ETH      C 5847   3.307   5.215   2.196  0.2540 -0.3141  0.1159
 1337ETH     C1 5848   3.442   5.217   2.284  0.7471  0.0832 -0.7694
 1337ETH      O 5849   3.548   5.165   2.206 -0.2514 -0.8429  0.2232
 1337ETH      H 5850   3.314   5.297   2.124  1.9344  0.1223  0.7256
 1337ETH     H1 5851   3.222   5.238   2.263 -0.1159  0.2512 -0.5378
 1337ETH     H2 5852   3.289   5.120   2.145 -1.2868  1.0556 -2.0411
 1337ETH     H3 5853   3.460   5.319   2.322  2.9372 -0.0057 -1.3889
 1337ETH     H4 5854   3.427   5.149   2.369  1.7636  0.8073  0.0342
 1337ETH     H5 5855   3.556   5.068   2.212  0.0624 -0.9164 -1.0621
 1338ETH      C 5856   2.463   1.886   3.362 -0.3513  0.6524  0.5176
 1338ETH     C1 5857   2.430   1.765   3.443  0.6099 -0.5348  0.1352
 1338ETH      O 5858   2.295   1.719   3.407  0.3133 -0.4449 -0.0665
 1338ETH      H 5859   2.369   1.943   3.353 -0.4544  0.4352  0.1988
 1338ETH     H1 5860   2.487   1.860   3.258 -4.4486  3.7894 -1.5572
 1338ETH     H2 5861   2.533   1.946   3.422  0.1483 -0.9991  1.6607
 1338ETH     H3 5862   2.502   1.683   3.431 -0.7534 -1.9698  1.3202
 1338ETH     H4 5863   2.429   1.792   3.549 -2.2128 -3.7483  1.1151
 1338ETH     H5 5864   2.294   1.662   3.328 -0.5564  0.2701 -0.5954
 1339ETH      C 5865   2.468   0.510   3.367 -0.0569  0.1121  0.2131
 1339ETH     C1 5866   2.616   0.558   3.361  0.4121 -0.5519  0.0248
 1339ETH      O 5867   2.650   0.602   3.227  0.4061 -0.3457 -0.1218
 1339ETH      H 5868   2.447   0.422   3.305  0.8190 -0.5319  0.7897
 1339ETH     H1 5869   2.391   0.586   3.355 -0.7654 -0.5458  0.5333
 1339ETH     H2 5870   2.443   0.476   3.468 -0.6402  2.6418  0.9964
 1339ETH     H3 5871   2.626   0.643   3.430 -1.4228  1.8964 -2.4768
 1339ETH     H4 5872   2.674   0.474   3.400 -1.7570 -1.3916  1.6011
 1339ETH     H5 5873   2.640   0.699   3.229 -0.9772 -0.4488 -0.5482
 1340ETH      C 5874   2.082   2.044   5.045 -0.2645 -0.6999  0.5134
 1340ETH     C1 5875   2.076   2.065   4.887 -0.5439  0.1491 -0.1631
 1340ETH      O 5876   2.194   2.110   4.837  0.0741 -0.1792  0.6001
 1340ETH      H 5877   1.992   1.982   5.053 -0.8474 -0.1095 -1.0025
 1340ETH     H1 5878   2.088   2.140   5.098  0.8739 -0.2509 -0.3897
 1340ETH     H2 5879   2.171   1.988   5.076  1.4606  1.1331 -0.8327
 1340ETH     H3 5880   2.065   1.968   4.837  2.3423 -0.1586 -0.3319
 1340ETH     H4 5881   1.998   2.139   4.863  1.5748  2.6229  0.1675
 1340ETH     H5 5882   2.168   2.176   4.771  1.0128 -0.0347  0.3629
 1341ETH      C 5883   4.509   4.276   3.990  0.3944 -0.0709  0.2236
 1341ETH     C1 5884   4.631   4.284   3.897 -0.1522  0.2437  0.0077
 1341ETH      O 5885   4.603   4.211   3.780  0.8880 -0.1742  0.6240
 1341ETH      H 5886   4.507   4.174   4.030  0.1628  0.7646  2.4847
 1341ETH     H1 5887   4.412   4.288   3.941  1.3421  0.7379 -1.5940
 1341ETH     H2 5888   4.524   4.345   4.073  0.2967 -0.7745  0.8331
 1341ETH     H3 5889   4.647   4.392   3.885  0.1099  0.2173  0.1113
 1341ETH     H4 5890   4.720   4.252   3.953 -0.4494 -0.2301  0.2124
 1341ETH     H5 5891   4.592   4.271   3.704  0.4312 -1.2451 -0.1906
 1342ETH      C 5892   3.185   2.934   4.714  0.4345  0.2073  0.2521
 1342ETH     C1 5893   3.274   3.054   4.679  0.2704 -0.5812 -0.1773
 1342ETH      O 5894   3.278   3.077   4.540 -0.3671 -0.2634 -0.1233
 1342ETH      H 5895   3.228   2.837   4.686  0.4325  0.2119  0.2341
 1342ETH     H1 5896   3.086   2.929   4.667 -0.4592 -1.5554  2.1675
 1342ETH     H2 5897   3.172   2.924   4.822  0.3587  1.3906  0.3602
 1342ETH     H3 5898   3.242   3.146   4.728  0.7026 -0.4706 -0.0970
 1342ETH     H4 5899   3.375   3.022   4.706  0.7611  1.0133 -0.0679
 1342ETH     H5 5900   3.239   2.992   4.516  2.5520 -1.7711 -0.0507
 1343ETH      C 5901   2.836   0.595   2.367 -0.4180 -0.0429  0.5362
 1343ETH     C1 5902   2.745   0.593   2.489  0.0986 -0.0398  0.7471
 1343ETH      O 5903   2.740   0.712   2.552 -0.2362 -0.6026 -0.3909
 1343ETH      H 5904   2.809   0.671   2.293  0.7811 -1.3293 -1.3350
 1343ETH     H1 5905   2.835   0.499   2.314 -2.9006 -0.0074  0.3862
 1343ETH     H2 5906   2.938   0.615   2.403 -0.5719  0.7062  0.5678
 1343ETH     H3 5907   2.643   0.569   2.460  0.2827  0.2708 -0.2270
 1343ETH     H4 5908   2.778   0.517   2.560  0.5735  1.8733  2.6656
 1343ETH     H5 5909   2.779   0.707   2.641 -0.7985 -0.5712 -0.1374
 1344ETH      C 5910   3.827   0.539   3.804 -0.2105 -0.1309 -0.7051
 1344ETH     C1 5911   3.758   0.672   3.779  0.2427 -0.9665  0.1738
 1344ETH      O 5912   3.689   0.674   3.658  0.8838  0.4505  0.7635
 1344ETH      H 5913   3.845   0.524   3.911 -1.4545 -1.2295 -0.6207
 1344ETH     H1 5914   3.917   0.522   3.743 -1.3602 -1.2883 -2.1588
 1344ETH     H2 5915   3.761   0.455   3.779  3.0657 -3.1017 -0.2724
 1344ETH     H3 5916   3.696   0.699   3.865 -0.8117  0.5586 -1.0158
 1344ETH     H4 5917   3.839   0.746   3.768  0.0823 -1.1389 -3.3488
 1344ETH     H5 5918   3.748   0.653   3.584  0.7704 -1.7000  1.2061
 1345ETH      C 5919   3.503   2.115   2.816  0.0133 -0.0142 -0.0229
 1345ETH     C1 5920   3.621   2.083   2.903  0.0556 -0.4314 -0.7345
 1345ETH      O 5921   3.741   2.148   2.854 -0.2314  0.6006 -0.4212
 1345ETH      H 5922   3.517   2.065   2.719  2.3490  2.5305 -1.1247
 1345ETH     H1 5923   3.495   2.223   2.799  0.0364  0.0150  0.1498
 1345ETH     H2 5924   3.425   2.074   2.882  0.5103 -0.1625  0.4776
 1345ETH     H3 5925   3.608   2.118   3.006 -0.0484  1.0132 -1.2231
 1345ETH     H4 5926   3.628   1.973   2.908 -1.1432 -0.6349 -2.7432
 1345ETH     H5 5927   3.812   2.116   2.912  0.8964  0.8844 -1.6057
 1346ETH      C 5928   3.461   2.421   0.360  0.3323 -0.8564 -0.3717
 1346ETH     C1 5929   3.523   2.471   0.491  0.4884  0.4307  0.0108
 1346ETH      O 5930   3.424   2.540   0.575 -0.5160  0.3595  0.3379
 1346ETH      H 5931   3.537   2.389   0.287  1.3336 -1.4165  0.8684
 1346ETH     H1 5932   3.420   2.506   0.305  1.2897 -0.1974 -0.0983
 1346ETH     H2 5933   3.395   2.333   0.360  0.1957 -0.7541 -0.2465
 1346ETH     H3 5934   3.564   2.381   0.539  1.3064  1.0082  0.4286
 1346ETH     H4 5935   3.613   2.534   0.482 -0.2691  1.3902 -1.0891
 1346ETH     H5 5936   3.370   2.479   0.628 -1.3808  1.2774  0.5469
 1347ETH      C 5937   1.194   1.895   2.032 -0.9653  0.2289 -0.1051
 1347ETH     C1 5938   1.308   1.796   2.037 -0.1328  0.3491 -1.2507
 1347ETH      O 5939   1.428   1.865   2.059  0.7212 -0.2578  0.2310
 1347ETH      H 5940   1.186   1.941   2.131  2.3658 -0.4802  0.6123
 1347ETH     H1 5941   1.100   1.840   2.018 -0.2752 -1.3976  1.3074
 1347ETH     H2 5942   1.204   1.969   1.952 -0.0155 -0.2588 -0.4466
 1347ETH     H3 5943   1.299   1.737   2.129  4.0926  1.6753  0.2831
 1347ETH     H4 5944   1.317   1.732   1.948 -1.5952 -4.2829  1.5662
 1347ETH     H5 5945   1.407   1.955   2.089  1.3946  0.1098 -0.3801
 1348ETH      C 5946   3.036   3.948   2.588 -0.1814 -0.6220  0.3313
 1348ETH     C1 5947   3.048   3.910   2.437  0.5380 -0.1676  0.6207
 1348ETH      O 5948   3.035   3.773   2.416  1.1605  0.4688 -0.0532
 1348ETH      H 5949   3.080   3.870   2.651 -1.2873 -1.0730  0.5690
 1348ETH     H1 5950   2.929   3.959   2.609 -0.5412 -1.0559 -1.1941
 1348ETH     H2 5951   3.080   4.046   2.614 -1.2295  0.1769 -0.7874
 1348ETH     H3 5952   2.975   3.967   2.378 -0.2727 -1.9632 -0.1813
 1348ETH     H4 5953   3.147   3.945   2.404  0.6456  1.7276  2.6973
 1348ETH     H5 5954   3.124   3.737   2.431  0.1099 -3.4986 -1.8293
 1349ETH      C 5955   2.036   2.337   2.122  0.2653  0.5942  0.0573
 1349ETH     C1 5956   2.155   2.279   2.191 -0.4221  0.4479 -0.5215
 1349ETH      O 5957   2.187   2.340   2.316  0.1855 -0.3844  0.0791
 1349ETH      H 5958   2.046   2.446   2.121  3.1508  0.4126  0.5879
 1349ETH     H1 5959   1.948   2.296   2.173  1.1368  0.4162  1.4815
 1349ETH     H2 5960   2.028   2.305   2.017  0.9451 -0.0561  0.1928
 1349ETH     H3 5961   2.136   2.173   2.207 -1.3600  0.6275 -0.3675
 1349ETH     H4 5962   2.243   2.299   2.128 -0.7534  1.9188 -0.5672
 1349ETH     H5 5963   2.191   2.269   2.381 -1.1360  0.0386  0.6634
 1350ETH      C 5964   5.746   1.981   3.351  0.2973  0.8566 -0.0282
 1350ETH     C1 5965   5.771   2.128   3.365  0.3002  0.0729 -0.2993
 1350ETH      O 5966   5.699   2.184   3.473 -0.2953  0.0579  1.0390
 1350ETH      H 5967   5.802   1.936   3.434  0.3173  1.9054  0.5538
 1350ETH     H1 5968   5.782   1.933   3.260  1.6115 -1.0652  1.4094
 1350ETH     H2 5969   5.640   1.957   3.360  0.0241  1.9566 -0.1074
 1350ETH     H3 5970   5.878   2.149   3.377  0.3455 -0.7566  0.9869
 1350ETH     H4 5971   5.734   2.172   3.272 -0.9167 -1.2283 -0.4693
 1350ETH     H5 5972   5.617   2.214   3.429  2.2678  3.2417 -2.1717
 1351ETH      C 5973   2.025   2.382   3.302 -0.4712  0.0172  0.2855
 1351ETH     C1 5974   2.166   2.407   3.353  0.3921  0.8527  0.3924
 1351ETH      O 5975   2.247   2.299   3.283  0.5134 -0.0347 -0.6189
 1351ETH      H 5976   2.012   2.402   3.195  1.5309  0.8343  0.1401
 1351ETH     H1 5977   1.963   2.452   3.360  0.2275  2.8491 -2.1164
 1351ETH     H2 5978   1.999   2.276   3.313  1.2562 -0.4462  0.2907
 1351ETH     H3 5979   2.207   2.503   3.320 -1.6971  0.2998 -4.7908
 1351ETH     H4 5980   2.168   2.389   3.461 -1.3451 -0.3694  0.2670
 1351ETH     H5 5981   2.335   2.336   3.266  1.7798 -3.1835 -1.6034
 1352ETH      C 5982   3.027   2.475   3.896  0.5914 -0.1219 -0.5848
 1352ETH     C1 5983   3.089   2.426   4.020 -0.5943  0.4803  0.1087
 1352ETH      O 5984   3.066   2.285   4.007  0.0743 -0.2052 -0.4186
 1352ETH      H 5985   2.919   2.457   3.899  0.4010  0.9760 -0.4415
 1352ETH     H1 5986   3.071   2.418   3.813 -0.0033 -2.0894  0.3665
 1352ETH     H2 5987   3.045   2.580   3.871  1.1205 -0.2277 -0.6618
 1352ETH     H3 5988   3.195   2.455   4.014 -0.4783  0.0629  0.1367
 1352ETH     H4 5989   3.033   2.477   4.099 -1.7945  1.3598 -1.2657
 1352ETH     H5 5990   3.140   2.239   4.050 -1.5017 -1.9939  0.4960
 1353ETH      C 5991   4.419   4.675   2.090  0.9190 -0.9964 -0.2921
 1353ETH     C1 5992   4.305   4.774   2.052  0.4098  1.4001  0.5429
 1353ETH      O 5993   4.371   4.896   2.033 -0.1116 -0.8915  0.1906
 1353ETH      H 5994   4.482   4.707   2.173  0.9895 -2.7078  0.3364
 1353ETH     H1 5995   4.479   4.662   1.999  0.7971  1.6074 -0.8365
 1353ETH     H2 5996   4.371   4.583   2.123  0.1837 -0.1924  0.9570
 1353ETH     H3 5997   4.250   4.747   1.961 -0.7112 -0.1025  1.6137
 1353ETH     H4 5998   4.237   4.780   2.138  0.0351 -0.5136  0.4357
 1353ETH     H5 5999   4.449   4.876   1.979 -0.6812 -0.0666 -0.9796
 1354ETH      C 6000   2.980   2.798   2.204  0.4292  0.2580 -0.1515
 1354ETH     C1 6001   2.971   2.682   2.099  0.0567 -0.3414 -0.7068
 1354ETH      O 6002   2.832   2.656   2.073  0.2989  0.2679  0.3105
 1354ETH      H 6003   3.086   2.819   2.221  0.2697  0.3478  0.8002
 1354ETH     H1 6004   2.936   2.768   2.300  0.9313  0.4927  0.1527
 1354ETH     H2 6005   2.922   2.887   2.175 -0.5607 -0.1528  0.5155
 1354ETH     H3 6006   3.019   2.722   2.008  0.2439  0.5052 -0.2406
 1354ETH     H4 6007   3.029   2.598   2.139  0.3594  0.2333  0.0839
 1354ETH     H5 6008   2.833   2.573   2.022  1.8892  0.0694  0.6239
 1355ETH      C 6009   3.397   2.836   5.278  0.1244  0.2077 -0.0931
 1355ETH     C1 6010   3.319   2.884   5.158 -0.0873  0.6852  0.2317
 1355ETH      O 6011   3.295   2.776   5.078  0.4348 -0.0586  0.0148
 1355ETH      H 6012   3.496   2.799   5.250  0.1494  0.4578 -0.3513
 1355ETH     H1 6013   3.350   2.749   5.324  0.1626 -0.1287 -0.6810
 1355ETH     H2 6014   3.415   2.915   5.352 -1.9845  1.1109 -0.4783
 1355ETH     H3 6015   3.224   2.928   5.190 -0.5361 -0.0401 -0.0657
 1355ETH     H4 6016   3.382   2.963   5.114 -0.2638  0.2561 -0.8147
 1355ETH     H5 6017   3.232   2.714   5.119  1.0161 -1.2925 -0.8951
 1356ETH      C 6018   2.939   3.014   1.368 -0.0544 -0.5058 -0.7632
 1356ETH     C1 6019   2.841   3.036   1.253 -0.3954  0.0760  0.3562
 1356ETH      O 6020   2.877   2.946   1.145 -0.2754 -0.9333 -0.1343
 1356ETH      H 6021   3.036   3.055   1.338 -0.5712  0.5311 -1.0906
 1356ETH     H1 6022   2.942   2.912   1.408  1.8040 -0.5736 -1.0140
 1356ETH     H2 6023   2.914   3.079   1.453 -2.3926 -2.5675  0.2473
 1356ETH     H3 6024   2.743   3.013   1.297 -0.2506  1.0935  1.2686
 1356ETH     H4 6025   2.862   3.138   1.218 -0.8868  0.0630  0.0129
 1356ETH     H5 6026   2.966   2.979   1.125 -0.3017  0.4081  1.6506
 1357ETH      C 6027   3.007   5.426   1.011  0.6351 -0.1075 -0.4022
 1357ETH     C1 6028   2.953   5.281   1.011  0.3810 -0.5806 -0.1399
 1357ETH      O 6029   2.959   5.216   1.140 -0.0894 -0.0872 -0.0979
 1357ETH      H 6030   2.942   5.490   1.072 -0.3899 -1.3606 -0.1436
 1357ETH     H1 6031   3.013   5.464   0.908 -0.6537  0.6722 -0.2209
 1357ETH     H2 6032   3.110   5.428   1.047  0.6112  0.2391 -0.3535
 1357ETH     H3 6033   2.847   5.277   0.980  0.8617  1.1895 -2.2969
 1357ETH     H4 6034   3.020   5.228   0.943 -0.6134 -0.8210 -0.9658
 1357ETH     H5 6035   3.041   5.251   1.179  0.8864 -1.2797 -0.9799
 1358ETH      C 6036   1.307   1.579   2.851  0.3599  0.6442  0.4865
 1358ETH     C1 6037   1.274   1.667   2.973 -0.0395  0.3657  0.0808
 1358ETH      O 6038   1.362   1.775   2.969 -0.1911  0.1478 -0.1603
 1358ETH      H 6039   1.299   1.471   2.870 -3.5263  0.6703 -0.3331
 1358ETH     H1 6040   1.413   1.590   2.825  0.2318 -0.3995 -0.5591
 1358ETH     H2 6041   1.243   1.604   2.767  0.1692  0.7836  0.6726
 1358ETH     H3 6042   1.167   1.689   2.971 -0.2657 -0.6947 -0.2394
 1358ETH     H4 6043   1.295   1.600   3.057  0.7604  0.3008 -0.1643
 1358ETH     H5 6044   1.449   1.741   2.998  0.1850 -0.7196 -2.1483
 1359ETH      C 6045   2.649   4.949   1.091 -0.0297  0.4520 -0.1689
 1359ETH     C1 6046   2.664   5.065   1.188  0.0687  0.8615  0.4409
 1359ETH      O 6047   2.772   5.058   1.279 -0.0243  0.1488  0.2972
 1359ETH      H 6048   2.749   4.937   1.048  0.2906 -0.3939  0.7521
 1359ETH     H1 6049   2.582   4.971   1.007  0.1158 -2.7489 -1.2732
 1359ETH     H2 6050   2.618   4.854   1.138  0.4285 -0.1353 -1.0269
 1359ETH     H3 6051   2.669   5.155   1.125 -1.1991  0.6554  0.0008
 1359ETH     H4 6052   2.569   5.073   1.243 -0.1592 -0.4819  0.2612
 1359ETH     H5 6053   2.858   5.084   1.242 -0.4130 -0.2547 -0.9367
 1360ETH      C 6054   4.549   0.171   1.320  0.6914  0.1086 -0.3234
 1360ETH     C1 6055   4.426   0.162   1.416  0.6458  0.2384  0.5950
 1360ETH      O 6056   4.300   0.181   1.345 -0.3763 -0.1926  0.0848
 1360ETH      H 6057   4.566   0.276   1.293 -0.9226  0.4608 -0.0899
 1360ETH     H1 6058   4.545   0.112   1.227 -0.5608  1.9888 -1.5386
 1360ETH     H2 6059   4.634   0.130   1.375  1.5957  2.0749 -0.1683
 1360ETH     H3 6060   4.428   0.066   1.468  0.5394  0.7038  1.4747
 1360ETH     H4 6061   4.440   0.242   1.490  1.6533  1.0130 -0.3851
 1360ETH     H5 6062   4.238   0.126   1.395  0.0500 -1.1057 -0.3625
 1361ETH      C 6063   1.323   4.055   2.355 -0.1693  0.3314  0.2847
 1361ETH     C1 6064   1.352   3.908   2.375 -0.3619  0.5752 -0.0621
 1361ETH      O 6065   1.475   3.871   2.308  0.0120  0.3950 -0.1621
 1361ETH      H 6066   1.398   4.109   2.414  1.1220 -2.1001  0.9949
 1361ETH     H1 6067   1.231   4.076   2.410 -0.2503 -3.5735  1.9691
 1361ETH     H2 6068   1.314   4.080   2.249 -1.8658  1.5756  0.6844
 1361ETH     H3 6069   1.355   3.884   2.482  1.2243  0.2782 -0.1418
 1361ETH     H4 6070   1.268   3.847   2.340  0.7313 -0.3284 -1.1854
 1361ETH     H5 6071   1.484   3.934   2.235  1.1666  1.4623  0.8446
 1362ETH      C 6072   2.538   5.517   1.695 -0.0212  0.1418  0.6655
 1362ETH     C1 6073   2.650   5.616   1.695 -0.7195 -0.4564 -0.3889
 1362ETH      O 6074   2.696   5.636   1.833  0.1650 -0.4279 -0.0872
 1362ETH      H 6075   2.585   5.424   1.730 -0.6376 -0.2431  0.4944
 1362ETH     H1 6076   2.500   5.486   1.597  0.9486 -1.8590  0.8619
 1362ETH     H2 6077   2.460   5.557   1.761  0.0673 -0.8970  1.4298
 1362ETH     H3 6078   2.739   5.584   1.641  0.9428  0.5557  1.6038
 1362ETH     H4 6079   2.606   5.709   1.657 -2.7579 -0.9936  0.5219
 1362ETH     H5 6080   2.757   5.711   1.835  0.2132 -0.4826  1.4621
 1363ETH      C 6081   3.797   0.891   2.096  0.3606  0.2163 -0.6559
 1363ETH     C1 6082   3.934   0.905   2.020 -0.2480 -0.4781  0.6059
 1363ETH      O 6083   4.020   0.978   2.108 -0.5078 -0.5048 -0.0368
 1363ETH      H 6084   3.808   0.816   2.176  2.2613 -0.2044 -1.2647
 1363ETH     H1 6085   3.725   0.846   2.027  1.1607  0.9586 -2.0128
 1363ETH     H2 6086   3.754   0.989   2.120 -1.1791 -0.6421  0.1901
 1363ETH     H3 6087   3.987   0.812   1.994  0.9305  0.7627 -1.7389
 1363ETH     H4 6088   3.912   0.965   1.931 -0.1942  2.0735  2.2261
 1363ETH     H5 6089   3.960   1.049   2.133 -2.6638 -2.6743  1.3898
 1364ETH      C 6090   2.938   1.223   1.293 -0.0789  0.2056 -0.1142
 1364ETH     C1 6091   2.833   1.304   1.368 -0.2900  0.8508  0.0664
 1364ETH      O 6092   2.878   1.438   1.392  0.4144 -0.1875 -0.1907
 1364ETH      H 6093   2.981   1.288   1.217 -0.7281  1.2979  0.4154
 1364ETH     H1 6094   2.896   1.133   1.247  1.5787 -0.4293 -0.4346
 1364ETH     H2 6095   3.019   1.179   1.351 -0.2088 -0.1728 -0.2180
 1364ETH     H3 6096   2.741   1.306   1.309  2.1562  0.1206 -4.1599
 1364ETH     H4 6097   2.804   1.256   1.462  3.1829 -1.8703 -0.0582
 1364ETH     H5 6098   2.950   1.434   1.457 -0.2282 -2.2026  0.4506
 1365ETH      C 6099   2.159   1.634   1.702 -0.7943  0.1051 -0.0500
 1365ETH     C1 6100   2.125   1.506   1.797 -0.3607 -0.1257  0.9563
 1365ETH      O 6101   2.231   1.413   1.792 -0.0902 -0.6903  0.6511
 1365ETH      H 6102   2.069   1.697   1.695  1.0078  2.7459 -1.4227
 1365ETH     H1 6103   2.182   1.597   1.602 -2.4123 -0.3618 -0.2762
 1365ETH     H2 6104   2.247   1.692   1.731 -0.4721  0.6179 -1.9245
 1365ETH     H3 6105   2.128   1.549   1.898 -0.6411  0.6785  0.6346
 1365ETH     H4 6106   2.025   1.471   1.767 -0.6737  3.1421 -2.7024
 1365ETH     H5 6107   2.301   1.460   1.841 -0.4477  0.9273 -0.2949
 1366ETH      C 6108   2.418   5.018   2.425  0.3571  0.2509 -0.3127
 1366ETH     C1 6109   2.375   4.875   2.395 -0.3266  0.6038  0.1391
 1366ETH      O 6110   2.252   4.870   2.326  0.5219  0.1043  1.2514
 1366ETH      H 6111   2.398   5.078   2.335  0.8414  0.3249 -0.3742
 1366ETH     H1 6112   2.517   5.037   2.468 -1.8006  4.7677  3.5186
 1366ETH     H2 6113   2.347   5.060   2.497  0.8267  3.7640 -1.6678
 1366ETH     H3 6114   2.452   4.828   2.333 -1.1455  0.1961 -0.5827
 1366ETH     H4 6115   2.374   4.817   2.488 -0.5779 -0.1013 -0.2922
 1366ETH     H5 6116   2.184   4.883   2.394 -1.6602 -0.6305 -0.6633
 1367ETH      C 6117   0.278   2.472   2.907  0.0779 -0.2133 -1.0226
 1367ETH     C1 6118   0.340   2.570   3.002 -0.2238 -0.0976  0.3449
 1367ETH      O 6119   0.441   2.520   3.083  0.4904  0.7335 -0.4735
 1367ETH      H 6120   0.180   2.512   2.879 -1.0404 -2.2376 -0.1754
 1367ETH     H1 6121   0.261   2.376   2.956 -0.7747 -0.3410 -1.5580
 1367ETH     H2 6122   0.345   2.465   2.820  0.5976 -2.2708 -0.5026
 1367ETH     H3 6123   0.380   2.655   2.945 -1.8777  0.8685  0.5697
 1367ETH     H4 6124   0.260   2.612   3.064 -0.6154 -0.5377  0.1426
 1367ETH     H5 6125   0.491   2.454   3.033  0.0538 -0.2290  0.3086
 1368ETH      C 6126   4.082   2.502   4.980  0.1869 -0.3605  0.2780
 1368ETH     C1 6127   3.960   2.474   4.890 -0.2797 -0.5271 -0.3698
 1368ETH      O 6128   3.960   2.563   4.773  0.4723  0.3150  0.1561
 1368ETH      H 6129   4.095   2.611   4.978  2.8273 -0.6116 -0.9231
 1368ETH     H1 6130   4.171   2.468   4.927  0.6345  0.0839  0.7287
 1368ETH     H2 6131   4.067   2.459   5.080 -2.8460 -0.9478 -0.3467
 1368ETH     H3 6132   3.970   2.370   4.857 -2.9497 -0.6612 -0.9431
 1368ETH     H4 6133   3.868   2.479   4.949  0.1932  0.5272  0.3155
 1368ETH     H5 6134   3.966   2.509   4.693  0.2011  0.1311  0.2568
 1369ETH      C 6135   4.326   2.717   4.685  0.2978 -0.4552  1.0497
 1369ETH     C1 6136   4.263   2.608   4.594 -0.2033  0.2242 -0.5379
 1369ETH      O 6137   4.208   2.678   4.487  0.5277  0.1837  0.3523
 1369ETH      H 6138   4.385   2.784   4.622 -1.5697 -1.5457 -2.0548
 1369ETH     H1 6139   4.395   2.665   4.753 -0.8110 -2.5097  0.6829
 1369ETH     H2 6140   4.245   2.775   4.729 -0.0810  0.2911 -0.5750
 1369ETH     H3 6141   4.345   2.550   4.550 -1.1012 -0.4338 -1.4187
 1369ETH     H4 6142   4.183   2.547   4.638  0.6017  0.4126  1.2437
 1369ETH     H5 6143   4.115   2.696   4.510 -0.3122 -0.8931 -1.9049
 1370ETH      C 6144   4.190   0.677   2.349  0.6308 -0.5947  0.0615
 1370ETH     C1 6145   4.152   0.574   2.239  0.2362 -0.6597  0.4501
 1370ETH      O 6146   4.018   0.599   2.185  0.2021  0.5697 -0.0965
 1370ETH      H 6147   4.294   0.656   2.375  0.3301 -0.0757  1.8155
 1370ETH     H1 6148   4.124   0.671   2.437 -1.5742 -0.9547 -1.5457
 1370ETH     H2 6149   4.170   0.778   2.312 -0.5352 -1.3456 -1.4313
 1370ETH     H3 6150   4.218   0.575   2.152 -0.7718  1.0855 -0.3303
 1370ETH     H4 6151   4.164   0.471   2.277  2.0767 -0.8236 -0.4569
 1370ETH     H5 6152   4.007   0.693   2.162 -0.5559  0.5231  0.0485
 1371ETH      C 6153   1.329   3.053   3.055 -0.6363 -0.0953  0.3472
 1371ETH     C1 6154   1.170   3.070   3.077 -0.2198 -0.2635 -0.4406
 1371ETH      O 6155   1.112   3.158   2.986 -0.7885  0.2011 -0.6078
 1371ETH      H 6156   1.351   3.026   2.952 -1.3734  1.1568 -0.1641
 1371ETH     H1 6157   1.373   2.980   3.124  0.0907 -0.4060 -0.4238
 1371ETH     H2 6158   1.374   3.151   3.074 -1.2195  0.2167  0.1587
 1371ETH     H3 6159   1.129   2.969   3.068  1.8142 -1.0244 -1.9962
 1371ETH     H4 6160   1.166   3.107   3.181  1.2701 -3.0348  0.7195
 1371ETH     H5 6161   1.033   3.197   3.027 -2.3921 -3.7126  0.4308
 1372ETH      C 6162   5.464   4.261   2.860  0.4599 -0.2284  0.6305
 1372ETH     C1 6163   5.472   4.201   2.997 -0.4923 -0.1079 -0.1168
 1372ETH      O 6164   5.570   4.100   3.001 -0.4816  0.0178  0.2873
 1372ETH      H 6165   5.401   4.351   2.862  0.7684 -0.0056  0.4183
 1372ETH     H1 6166   5.419   4.189   2.790 -0.4138  0.6095  0.2972
 1372ETH     H2 6167   5.564   4.285   2.822  0.0064 -1.3536 -1.3974
 1372ETH     H3 6168   5.501   4.283   3.063 -0.3144 -1.0423  1.0027
 1372ETH     H4 6169   5.374   4.160   3.024 -1.0210  1.3749  0.2977
 1372ETH     H5 6170   5.626   4.117   3.079 -1.7341  1.4393  0.9309
 1373ETH      C 6171   2.649   2.198   1.104  0.5964  1.0162 -0.3210
 1373ETH     C1 6172   2.590   2.150   0.981 -0.0643 -0.6313  0.0420
 1373ETH      O 6173   2.635   2.243   0.885  0.1150  0.3589 -0.0985
 1373ETH      H 6174   2.748   2.156   1.122  0.0004 -0.7631 -0.9575
 1373ETH     H1 6175   2.587   2.156   1.185 -1.5205 -0.5841 -2.5999
 1373ETH     H2 6176   2.653   2.307   1.117 -2.7829  1.2502 -0.3251
 1373ETH     H3 6177   2.605   2.043   0.962  1.3848 -0.4251 -0.1143
 1373ETH     H4 6178   2.482   2.166   0.992  0.3138  0.9229  2.1427
 1373ETH     H5 6179   2.731   2.251   0.883  0.1617  0.6721  1.7036
 1374ETH      C 6180   3.119   2.947   2.665 -0.3173 -0.4473  0.2323
 1374ETH     C1 6181   3.269   2.906   2.656  0.1174  0.0269  0.4885
 1374ETH      O 6182   3.275   2.793   2.577  0.0110  0.3160  0.2779
 1374ETH      H 6183   3.072   2.905   2.755  0.6008 -0.8088  0.5675
 1374ETH     H1 6184   3.060   2.917   2.578  1.8363 -1.0654 -1.1077
 1374ETH     H2 6185   3.109   3.055   2.678  0.2049 -0.0351 -2.2318
 1374ETH     H3 6186   3.329   2.990   2.617  0.9245 -1.1077 -0.7844
 1374ETH     H4 6187   3.291   2.883   2.761 -0.0627 -1.4731  0.2143
 1374ETH     H5 6188   3.360   2.754   2.602 -0.2319  0.6046  1.6115
 1375ETH      C 6189   3.547   2.469   2.943 -0.0102  0.2335  0.4177
 1375ETH     C1 6190   3.668   2.559   2.923 -0.2526 -0.7432 -0.2287
 1375ETH      O 6191   3.719   2.583   3.053 -0.8652 -0.8733  0.2117
 1375ETH      H 6192   3.472   2.520   3.003 -2.0941 -0.7542 -1.2231
 1375ETH     H1 6193   3.567   2.373   2.993 -1.0210  0.3007  0.9753
 1375ETH     H2 6194   3.508   2.450   2.842 -1.2649  1.1603  0.7135
 1375ETH     H3 6195   3.750   2.502   2.878  0.4106  1.6739 -2.3226
 1375ETH     H4 6196   3.652   2.651   2.865  1.9493  0.5544  1.0700
 1375ETH     H5 6197   3.648   2.630   3.101 -1.9866 -2.0122 -0.2815
 1376ETH      C 6198   5.577   1.917   3.722  0.0662  0.5709 -0.0919
 1376ETH     C1 6199   5.449   1.991   3.693 -0.0700 -0.2704  0.5697
 1376ETH      O 6200   5.390   2.029   3.818 -0.4448 -0.2504  0.3504
 1376ETH      H 6201   5.660   1.989   3.729 -0.0013  0.7114 -0.7478
 1376ETH     H1 6202   5.606   1.842   3.648 -0.8979  0.9924 -0.9131
 1376ETH     H2 6203   5.565   1.862   3.816 -1.1492  1.3332  0.2210
 1376ETH     H3 6204   5.464   2.076   3.626  1.2973 -1.1878 -0.3373
 1376ETH     H4 6205   5.383   1.919   3.644 -1.7397  1.4678  0.1632
 1376ETH     H5 6206   5.298   2.050   3.796 -0.3273  1.3314  1.1660
 1377ETH      C 6207   3.101   3.224   1.797 -0.5004  0.1676 -0.0616
 1377ETH     C1 6208   3.104   3.143   1.926  0.0684  0.0135 -0.4839
 1377ETH      O 6209   3.039   3.227   2.026  0.7885 -0.3538 -0.1028
 1377ETH      H 6210   3.124   3.159   1.712 -0.6709  1.4205 -1.0979
 1377ETH     H1 6211   3.161   3.316   1.803 -0.4495  0.0570  1.4458
 1377ETH     H2 6212   2.996   3.254   1.788 -0.5940  0.5845  2.0152
 1377ETH     H3 6213   3.059   3.045   1.907 -1.9441  0.7079  0.4085
 1377ETH     H4 6214   3.210   3.138   1.955 -0.4820 -0.0084  1.6892
 1377ETH     H5 6215   2.949   3.247   1.996 -0.3807 -0.2769  3.0461
 1378ETH      C 6216   2.668   1.035   4.494  0.0125 -0.0546  0.4333
 1378ETH     C1 6217   2.602   1.172   4.499 -0.9803 -0.6501  0.2361
 1378ETH      O 6218   2.706   1.271   4.503 -0.1738  0.4547 -0.2728
 1378ETH      H 6219   2.587   0.975   4.451  1.2629 -1.4144 -0.1284
 1378ETH     H1 6220   2.686   0.995   4.594 -2.0579  0.8234  1.2208
 1378ETH     H2 6221   2.751   1.018   4.425 -1.1807 -1.3015 -0.7448
 1378ETH     H3 6222   2.543   1.187   4.408 -1.1297  1.6311  0.6547
 1378ETH     H4 6223   2.545   1.176   4.592  1.1166  2.6154  1.5567
 1378ETH     H5 6224   2.751   1.272   4.417 -0.2837 -0.7815 -0.3635
 1379ETH      C 6225   2.803   2.302   3.374 -0.1527  0.5169  0.5043
 1379ETH     C1 6226   2.666   2.235   3.369 -0.9890  0.1707 -0.1564
 1379ETH      O 6227   2.578   2.337   3.421  0.5569  0.9631  0.6360
 1379ETH      H 6228   2.816   2.359   3.281 -0.0801 -1.1197 -0.5509
 1379ETH     H1 6229   2.879   2.223   3.366  0.1924  0.7989  0.9687
 1379ETH     H2 6230   2.824   2.364   3.461  4.0076 -1.2098  0.9843
 1379ETH     H3 6231   2.642   2.207   3.265  2.6221  1.1088 -1.3777
 1379ETH     H4 6232   2.656   2.144   3.429  0.6673  0.5772  0.7744
 1379ETH     H5 6233   2.573   2.330   3.518  0.3296  2.0185  0.7160
 1380ETH      C 6234   3.313   4.229   2.101  0.2767  0.2694  0.3306
 1380ETH     C1 6235   3.395   4.222   1.975 -0.6184  0.2224  0.4026
 1380ETH      O 6236   3.317   4.177   1.858  0.3338 -0.1012  0.4204
 1380ETH      H 6237   3.248   4.317   2.101 -0.1624 -0.0503  0.4210
 1380ETH     H1 6238   3.370   4.226   2.195  0.9396 -1.0388 -0.0921
 1380ETH     H2 6239   3.241   4.146   2.107 -0.6138  0.9937 -0.1825
 1380ETH     H3 6240   3.440   4.321   1.963 -0.6269  0.4125  1.7792
 1380ETH     H4 6241   3.475   4.150   1.994  1.3554  2.1075 -0.3353
 1380ETH     H5 6242   3.284   4.086   1.867 -0.4718  0.0849 -0.5396
 1381ETH      C 6243   2.717   4.529   2.608 -0.2686  0.5115 -0.1285
 1381ETH     C1 6244   2.697   4.639   2.498  0.5510 -0.9370 -0.2817
 1381ETH      O 6245   2.593   4.595   2.401 -0.8984 -0.2615 -0.1946
 1381ETH      H 6246   2.797   4.546   2.681 -2.3748 -1.7445  2.9877
 1381ETH     H1 6247   2.738   4.431   2.564 -0.7896  1.0315 -1.5728
 1381ETH     H2 6248   2.625   4.507   2.663  1.6761 -2.0867  2.3646
 1381ETH     H3 6249   2.681   4.739   2.541  2.6670 -1.6269  2.4165
 1381ETH     H4 6250   2.782   4.658   2.432 -0.4282  1.3798 -0.9675
 1381ETH     H5 6251   2.623   4.637   2.319  1.2837 -0.9901  0.1659
 1382ETH      C 6252   0.116   3.377   3.113  0.2482 -0.6740 -0.4852
 1382ETH     C1 6253   0.200   3.251   3.102 -0.4280  0.0921 -0.4189
 1382ETH      O 6254   0.139   3.155   3.023 -0.7012  0.5145 -0.2785
 1382ETH      H 6255   0.015   3.352   3.149 -0.0848  0.3441 -0.6930
 1382ETH     H1 6256   0.114   3.426   3.016  2.5770 -2.1058 -1.3273
 1382ETH     H2 6257   0.158   3.450   3.183  0.6492 -0.9548 -0.4323
 1382ETH     H3 6258   0.304   3.279   3.077  1.3215 -3.4183  2.0835
 1382ETH     H4 6259   0.216   3.211   3.203  1.6499  1.1347 -0.2726
 1382ETH     H5 6260   0.117   3.078   3.078 -0.8647  0.9563  0.2857
 1383ETH      C 6261   3.914   3.950   1.049  0.5939  0.5489  0.1278
 1383ETH     C1 6262   3.878   3.990   1.198  0.2287 -0.4043  0.3418
 1383ETH      O 6263   3.968   3.949   1.301  0.0571 -0.2243  0.1986
 1383ETH      H 6264   3.835   3.975   0.978  1.1175  1.0745 -0.2783
 1383ETH     H1 6265   3.949   3.846   1.040  0.0056  0.1756  1.7592
 1383ETH     H2 6266   3.998   4.010   1.012  1.0219  1.9237  3.0355
 1383ETH     H3 6267   3.875   4.100   1.191 -0.0881 -0.4520 -0.3926
 1383ETH     H4 6268   3.774   3.961   1.219 -0.2517  0.7682 -0.3110
 1383ETH     H5 6269   3.976   3.852   1.299 -0.8321 -0.3320  1.0438
 1384ETH      C 6270   1.515   3.019   5.518 -0.0637  0.1338  0.0561
 1384ETH     C1 6271   1.586   3.150   5.533 -0.0938 -0.3405  0.2231
 1384ETH      O 6272   1.672   3.171   5.425 -0.3240  0.5978  0.3376
 1384ETH      H 6273   1.413   3.039   5.553 -1.2882 -3.7718 -0.7785
 1384ETH     H1 6274   1.555   2.932   5.571  0.1136 -0.2180 -0.6541
 1384ETH     H2 6275   1.514   2.983   5.415  2.8790  0.4784 -0.1922
 1384ETH     H3 6276   1.510   3.228   5.518 -0.8547 -1.2328 -0.7185
 1384ETH     H4 6277   1.634   3.177   5.627  0.8770  0.9595 -0.6006
 1384ETH     H5 6278   1.738   3.100   5.438 -0.1079  0.8986  0.8926
 1385ETH      C 6279   2.111   3.214   0.871  0.0819  0.4506 -0.1572
 1385ETH     C1 6280   2.097   3.141   0.742  0.5377  0.4585  0.6124
 1385ETH      O 6281   2.215   3.066   0.719 -0.0198 -0.1580 -0.3055
 1385ETH      H 6282   2.150   3.152   0.953 -2.5698  0.8840  1.5733
 1385ETH     H1 6283   2.018   3.257   0.909  1.1085  1.8975  0.8516
 1385ETH     H2 6284   2.189   3.290   0.854  0.7712 -0.3332 -0.5768
 1385ETH     H3 6285   2.005   3.082   0.748  0.1092  0.7757 -1.8035
 1385ETH     H4 6286   2.086   3.213   0.660 -2.2583 -0.8680 -0.2922
 1385ETH     H5 6287   2.287   3.131   0.730  1.1834 -1.6220  0.8313
 1386ETH      C 6288   3.102   2.428   5.260 -0.3439 -0.3287  0.6651
 1386ETH     C1 6289   3.095   2.439   5.100  0.4400  0.1056 -0.9292
 1386ETH      O 6290   3.085   2.576   5.068  0.4637  0.6556  0.1193
 1386ETH      H 6291   3.120   2.323   5.289 -0.2553 -0.3375  0.5772
 1386ETH     H1 6292   3.013   2.461   5.316  0.2445  2.0900  0.2763
 1386ETH     H2 6293   3.191   2.483   5.290 -0.5964  1.3862 -1.4982
 1386ETH     H3 6294   3.175   2.380   5.054  1.2341  0.2837  0.1799
 1386ETH     H4 6295   3.002   2.389   5.070  0.4516  0.2366 -1.1830
 1386ETH     H5 6296   3.068   2.570   4.972 -1.0640  1.5534  0.2910
 1387ETH      C 6297   3.211   4.943   3.173  0.2986 -0.4201 -0.4956
 1387ETH     C1 6298   3.212   5.085   3.205  0.2354 -0.2473  0.4241
 1387ETH      O 6299   3.300   5.143   3.111  0.2615 -0.0947  0.0436
 1387ETH      H 6300   3.316   4.918   3.187  0.0986  0.4291  4.2839
 1387ETH     H1 6301   3.188   4.938   3.066 -2.8540  1.2282 -0.0105
 1387ETH     H2 6302   3.144   4.888   3.241  0.4862  1.2673  1.1271
 1387ETH     H3 6303   3.112   5.129   3.194  1.2851  2.6210  1.4076
 1387ETH     H4 6304   3.245   5.099   3.309  0.5810  0.3841  0.2358
 1387ETH     H5 6305   3.245   5.194   3.050 -0.9077 -1.3185  0.0434
 1388ETH      C 6306   4.388   1.568   1.805  0.1503  0.2506  0.0967
 1388ETH     C1 6307   4.257   1.630   1.785 -0.5321 -0.3788  0.7047
 1388ETH      O 6308   4.185   1.625   1.907 -0.4392 -0.2291  0.2022
 1388ETH      H 6309   4.449   1.636   1.865 -2.1498  1.2088  1.4675
 1388ETH     H1 6310   4.439   1.551   1.709  2.9993 -0.0183  1.5660
 1388ETH     H2 6311   4.378   1.473   1.859 -0.1739  1.3058  1.9575
 1388ETH     H3 6312   4.273   1.735   1.758  1.9859 -0.0259  3.0943
 1388ETH     H4 6313   4.198   1.582   1.706  0.0782 -0.6823  0.4245
 1388ETH     H5 6314   4.233   1.681   1.970 -0.7381  1.8047 -1.2567
 1389ETH      C 6315   2.348   3.364   3.630  0.4130 -0.2153  0.1287
 1389ETH     C1 6316   2.282   3.482   3.693 -0.3861 -0.2366 -0.2050
 1389ETH      O 6317   2.333   3.508   3.826 -0.5923 -0.2636  0.1149
 1389ETH      H 6318   2.296   3.347   3.535 -0.5333 -2.0217  0.9325
 1389ETH     H1 6319   2.328   3.274   3.688 -0.4881  0.2635  0.5926
 1389ETH     H2 6320   2.456   3.380   3.618  0.2946  0.1278 -0.6014
 1389ETH     H3 6321   2.298   3.567   3.624 -1.7336 -0.3546 -0.6979
 1389ETH     H4 6322   2.175   3.459   3.693 -0.6514  0.8322  1.2789
 1389ETH     H5 6323   2.265   3.558   3.875  0.2143  0.8892  0.1137
 1390ETH      C 6324   5.033   3.182   4.705 -0.2779  0.5344  0.3218
 1390ETH     C1 6325   4.944   3.252   4.813 -0.3999 -0.1405  0.0815
 1390ETH      O 6326   4.813   3.268   4.764 -0.0978 -0.2389  0.1543
 1390ETH      H 6327   5.054   3.235   4.611  1.1642  0.4678  0.5863
 1390ETH     H1 6328   4.992   3.087   4.670  0.9817  1.7032 -5.2954
 1390ETH     H2 6329   5.124   3.153   4.758  0.3566  1.4800 -0.2196
 1390ETH     H3 6330   4.939   3.191   4.904  1.6403 -1.4090 -0.5752
 1390ETH     H4 6331   4.988   3.350   4.834  0.2119 -0.5131  0.5498
 1390ETH     H5 6332   4.811   3.342   4.700 -1.2509 -0.6140 -0.2862
 1391ETH      C 6333   5.659   3.095   2.289 -0.4395 -0.3757 -0.0979
 1391ETH     C1 6334   5.546   3.172   2.359 -0.6309 -0.0213  0.9477
 1391ETH      O 6335   5.455   3.221   2.255  0.4349  0.7460 -0.0739
 1391ETH      H 6336   5.631   2.996   2.252 -0.6585  0.0787 -1.1770
 1391ETH     H1 6337   5.750   3.089   2.351  1.0626  0.0943 -2.1394
 1391ETH     H2 6338   5.678   3.159   2.202 -2.9276  0.9757  0.2451
 1391ETH     H3 6339   5.489   3.116   2.434  0.9236 -0.3887  1.9078
 1391ETH     H4 6340   5.600   3.251   2.413  1.0656 -1.0799  0.8582
 1391ETH     H5 6341   5.392   3.149   2.237  1.8536 -0.7199  0.5786
 1392ETH      C 6342   2.701   4.234   5.048  0.1410  0.1516  0.2416
 1392ETH     C1 6343   2.690   4.116   5.143  0.6699 -1.0611 -0.2290
 1392ETH      O 6344   2.813   4.037   5.145 -0.5571  0.4006 -0.2571
 1392ETH      H 6345   2.720   4.207   4.944  2.3282  2.4010 -0.0198
 1392ETH     H1 6346   2.770   4.309   5.087 -1.8302  1.3140  1.6601
 1392ETH     H2 6347   2.599   4.275   5.057  0.3544  0.2588  3.8365
 1392ETH     H3 6348   2.672   4.159   5.242 -0.2474  2.2391 -1.6828
 1392ETH     H4 6349   2.598   4.059   5.125 -1.1530  1.3695  0.7422
 1392ETH     H5 6350   2.891   4.095   5.139 -0.6040  0.4767 -0.1264
 1393ETH      C 6351   1.445   2.409   2.591  1.0699 -0.4124  0.3586
 1393ETH     C1 6352   1.294   2.425   2.623  0.1290 -0.0087 -0.2541
 1393ETH      O 6353   1.220   2.308   2.610 -0.1217  0.1399 -0.2340
 1393ETH      H 6354   1.471   2.369   2.492  0.6203  0.6266 -0.1964
 1393ETH     H1 6355   1.493   2.340   2.661 -1.7337 -2.0640  0.8253
 1393ETH     H2 6356   1.506   2.500   2.595 -1.6087  1.4635  1.6118
 1393ETH     H3 6357   1.276   2.472   2.720  1.1966  1.5911 -0.7837
 1393ETH     H4 6358   1.261   2.500   2.550 -1.4388 -0.0757  0.3570
 1393ETH     H5 6359   1.183   2.285   2.697  1.7290  1.1763  0.9151
 1394ETH      C 6360   2.598   3.746   0.419  0.0277 -0.4963  0.6616
 1394ETH     C1 6361   2.651   3.756   0.276  0.1615  0.2786  0.2216
 1394ETH      O 6362   2.602   3.640   0.211 -0.1896 -0.3128  0.1619
 1394ETH      H 6363   2.627   3.654   0.470  0.7900 -0.9373 -0.5048
 1394ETH     H1 6364   2.492   3.770   0.430  0.1881 -0.0772  1.2876
 1394ETH     H2 6365   2.646   3.832   0.467 -1.1283  1.7587 -1.9265
 1394ETH     H3 6366   2.617   3.853   0.238 -1.6009  0.3988  1.9347
 1394ETH     H4 6367   2.760   3.749   0.281  0.2685  0.4860 -1.4923
 1394ETH     H5 6368   2.628   3.562   0.263 -1.1155 -1.4801 -1.0410
 1395ETH      C 6369   4.735   3.710   2.626  0.5654 -0.5453 -0.2791
 1395ETH     C1 6370   4.576   3.696   2.611  0.0164 -0.2512  0.1429
 1395ETH      O 6371   4.535   3.637   2.734 -0.5062 -0.0550 -0.1485
 1395ETH      H 6372   4.791   3.617   2.646  0.6725  0.0662  2.5829
 1395ETH     H1 6373   4.743   3.768   2.718 -0.4026  0.3488 -0.7338
 1395ETH     H2 6374   4.777   3.756   2.536  2.4006 -2.0099 -0.2482
 1395ETH     H3 6375   4.531   3.795   2.597  0.9245 -0.0446 -1.6182
 1395ETH     H4 6376   4.547   3.634   2.526  1.5157  1.4105 -1.6754
 1395ETH     H5 6377   4.441   3.617   2.717  0.0193 -1.5281 -1.5581
 1396ETH      C 6378   3.110   2.470   3.527  0.2597  0.1387 -0.0709
 1396ETH     C1 6379   3.143   2.558   3.405  0.2259  0.0463  0.3864
 1396ETH      O 6380   3.279   2.525   3.360 -0.2277  0.3238 -0.0748
 1396ETH      H 6381   3.003   2.451   3.535 -0.1029  2.1332  0.4831
 1396ETH     H1 6382   3.150   2.504   3.623  1.2263 -0.9581 -0.0604
 1396ETH     H2 6383   3.154   2.370   3.517 -1.0077 -0.6253  1.6057
 1396ETH     H3 6384   3.071   2.535   3.326 -0.5345 -2.0127  1.5976
 1396ETH     H4 6385   3.131   2.663   3.432  1.4719  0.4017 -0.3539
 1396ETH     H5 6386   3.280   2.428   3.352 -0.2592  0.2084  1.1333
 1397ETH      C 6387   2.468   5.405   2.595 -0.1358 -0.4853  0.0729
 1397ETH     C1 6388   2.606   5.413   2.525  0.0302  0.3861  0.2309
 1397ETH      O 6389   2.676   5.295   2.554  0.1771  0.4753 -0.2860
 1397ETH      H 6390   2.478   5.440   2.698  0.3648 -1.6297  0.4329
 1397ETH     H1 6391   2.420   5.308   2.610  0.1693 -0.8089 -0.9517
 1397ETH     H2 6392   2.401   5.474   2.543 -0.7566  0.8814  2.5530
 1397ETH     H3 6393   2.590   5.419   2.417  2.2153 -0.3290 -0.1675
 1397ETH     H4 6394   2.667   5.500   2.552 -0.6066  0.5451  1.2248
 1397ETH     H5 6395   2.759   5.290   2.504  1.1167  0.6846  1.1983
 1398ETH      C 6396   3.721   4.488   4.273  0.2898 -0.8314  0.0066
 1398ETH     C1 6397   3.749   4.382   4.382  0.2002  0.3706 -0.1356
 1398ETH      O 6398   3.666   4.267   4.364  0.2790 -0.4001 -0.5682
 1398ETH      H 6399   3.613   4.508   4.282  0.3225  0.3330 -1.6817
 1398ETH     H1 6400   3.716   4.437   4.176  0.8503 -1.6003  0.3760
 1398ETH     H2 6401   3.788   4.574   4.279  0.1845 -0.8167  1.2711
 1398ETH     H3 6402   3.856   4.357   4.386  0.0731 -0.5331 -1.8042
 1398ETH     H4 6403   3.740   4.443   4.473 -1.5983  1.4582 -0.9814
 1398ETH     H5 6404   3.721   4.195   4.400  0.1195  0.1386  0.8170
 1399ETH      C 6405   2.350   3.814   1.104 -0.1850  0.2468 -0.8882
 1399ETH     C1 6406   2.287   3.683   1.042  0.0908  0.7793  0.3661
 1399ETH      O 6407   2.277   3.580   1.124  0.6213  0.0438 -0.2456
 1399ETH      H 6408   2.330   3.855   1.203  0.6332 -0.0555 -0.5918
 1399ETH     H1 6409   2.330   3.902   1.041 -2.6027 -0.1142 -0.7358
 1399ETH     H2 6410   2.459   3.804   1.101 -0.2265 -0.5285 -0.1619
 1399ETH     H3 6411   2.188   3.704   1.000  0.3056  1.0185 -0.0222
 1399ETH     H4 6412   2.359   3.664   0.962  0.5370  1.2013  0.6546
 1399ETH     H5 6413   2.192   3.587   1.170  0.9064 -0.5887  0.4107
 1400ETH      C 6414   0.970   2.091   2.504 -0.1593  0.4888  0.3318
 1400ETH     C1 6415   1.057   2.086   2.381  0.3697 -0.4774 -0.1017
 1400ETH      O 6416   1.187   2.128   2.418 -0.2361  0.2972  0.7252
 1400ETH      H 6417   0.883   2.025   2.490 -0.2119  0.9986 -2.0974
 1400ETH     H1 6418   0.933   2.194   2.515 -1.0661  0.1482  0.6302
 1400ETH     H2 6419   1.018   2.060   2.598  2.4072  0.9777 -0.7462
 1400ETH     H3 6420   1.063   1.991   2.326  0.8841 -1.5224  1.6917
 1400ETH     H4 6421   1.023   2.160   2.307 -2.9220  0.3059  2.0279
 1400ETH     H5 6422   1.183   2.192   2.491 -1.4985  0.4608  0.5402
 1401ETH      C 6423   0.304   4.263   2.947 -0.3021  0.3528 -0.8671
 1401ETH     C1 6424   0.213   4.145   2.941  0.2935 -0.5301 -0.2003
 1401ETH      O 6425   0.278   4.033   2.980 -0.0152  0.3555 -0.5089
 1401ETH      H 6426   0.260   4.351   2.900 -1.5990 -0.1219 -0.5703
 1401ETH     H1 6427   0.397   4.233   2.897 -0.9869 -2.5797 -0.5973
 1401ETH     H2 6428   0.332   4.287   3.050  0.8258 -1.3063 -0.7335
 1401ETH     H3 6429   0.120   4.152   2.998 -0.3373  0.5539 -1.3047
 1401ETH     H4 6430   0.175   4.132   2.839 -1.6001 -2.2824  0.6727
 1401ETH     H5 6431   0.345   4.012   2.913  2.3446  2.8246  0.8562
 1402ETH      C 6432   3.916   1.564   2.954  0.3389 -0.5742  0.3652
 1402ETH     C1 6433   3.849   1.683   2.884  0.5114  0.2489 -0.1777
 1402ETH      O 6434   3.798   1.623   2.758 -0.0872 -0.2131  0.5487
 1402ETH      H 6435   3.999   1.514   2.901 -1.0935 -2.1956 -0.4320
 1402ETH     H1 6436   3.849   1.478   2.959  0.5364 -0.8253 -0.9015
 1402ETH     H2 6437   3.942   1.597   3.055 -0.7173 -0.5131  0.6237
 1402ETH     H3 6438   3.768   1.709   2.953  1.3489 -1.7016  1.6456
 1402ETH     H4 6439   3.920   1.765   2.868  0.6045  0.0993 -0.5485
 1402ETH     H5 6440   3.701   1.622   2.767  0.0143 -1.3087  1.9206
 1403ETH      C 6441   1.049   2.768   5.256  0.7941 -0.0987  0.1456
 1403ETH     C1 6442   1.094   2.752   5.113  0.0056  0.2687 -0.5081
 1403ETH      O 6443   1.190   2.852   5.088 -0.4224  0.1656  0.1658
 1403ETH      H 6444   0.980   2.852   5.261  0.4087 -0.2959 -1.2994
 1403ETH     H1 6445   1.151   2.776   5.296  2.0456 -0.3561 -2.7059
 1403ETH     H2 6446   0.996   2.678   5.290  0.1706 -0.5927 -1.9856
 1403ETH     H3 6447   1.145   2.655   5.101  2.2530  1.2818  0.3484
 1403ETH     H4 6448   1.011   2.748   5.042 -0.9785  0.5087  0.6127
 1403ETH     H5 6449   1.177   2.891   5.000  0.5389  2.2317  0.8571
 1404ETH      C 6450   2.021   3.172   2.985 -0.4650 -0.3189  0.4917
 1404ETH     C1 6451   2.037   3.095   3.119  0.3656  0.2862  0.1486
 1404ETH      O 6452   1.932   3.000   3.118  0.3759  0.2419  0.5851
 1404ETH      H 6453   1.914   3.188   2.965 -0.1402  0.9429 -0.3882
 1404ETH     H1 6454   2.070   3.125   2.899  0.4869 -1.2093  1.5131
 1404ETH     H2 6455   2.056   3.276   2.991 -1.7583  0.2457 -0.8838
 1404ETH     H3 6456   2.132   3.045   3.142 -0.3256 -1.1195  0.0658
 1404ETH     H4 6457   2.011   3.156   3.206 -2.8304 -2.3991  1.2663
 1404ETH     H5 6458   1.887   3.011   3.204 -1.1420 -1.0258 -0.0004
 1405ETH      C 6459   2.530   3.211   1.071  0.2885  0.6087  0.5726
 1405ETH     C1 6460   2.479   3.343   1.008 -0.1608  0.3038  0.5965
 1405ETH      O 6461   2.547   3.368   0.883  0.3720 -0.6543  0.4133
 1405ETH      H 6462   2.639   3.222   1.070  0.3549  0.1583 -1.1736
 1405ETH     H1 6463   2.521   3.121   1.009  2.3663  0.3759  0.5566
 1405ETH     H2 6464   2.491   3.192   1.172  0.4819 -0.3643  0.4798
 1405ETH     H3 6465   2.371   3.331   0.993  0.0262 -1.2912  0.4106
 1405ETH     H4 6466   2.495   3.425   1.079  0.3596  0.8692 -0.1599
 1405ETH     H5 6467   2.620   3.429   0.903  0.8712 -0.6022 -1.4395
 1406ETH      C 6468   1.841   2.955   1.551  0.2933 -0.2771 -0.2204
 1406ETH     C1 6469   1.685   2.956   1.547  0.4604 -0.3895  0.7399
 1406ETH      O 6470   1.638   3.082   1.593 -0.0604 -0.1487 -0.4911
 1406ETH      H 6471   1.865   2.968   1.657 -1.3808 -0.3222  0.1931
 1406ETH     H1 6472   1.874   3.043   1.494 -1.0948 -1.1165 -2.4451
 1406ETH     H2 6473   1.875   2.859   1.511  0.6745  0.3607 -1.4768
 1406ETH     H3 6474   1.657   2.942   1.442  1.1934  0.3319  0.4376
 1406ETH     H4 6475   1.652   2.871   1.608 -2.2733  0.2039  0.2243
 1406ETH     H5 6476   1.699   3.118   1.659 -1.2527 -0.0267  0.6008
 1407ETH      C 6477   3.445   4.353   1.217  0.3908  0.3098  0.1022
 1407ETH     C1 6478   3.599   4.355   1.218 -0.4054 -0.0750  0.5366
 1407ETH      O 6479   3.650   4.455   1.300 -0.6889 -0.3353  0.0834
 1407ETH      H 6480   3.397   4.295   1.138 -4.8939  1.8491  1.7892
 1407ETH     H1 6481   3.415   4.456   1.196 -0.1246  0.3591  1.0306
 1407ETH     H2 6482   3.412   4.309   1.312 -0.4948 -2.3676 -1.3272
 1407ETH     H3 6483   3.636   4.254   1.239 -1.2378 -0.4962  0.0252
 1407ETH     H4 6484   3.639   4.389   1.122 -0.8346 -0.7328  0.1207
 1407ETH     H5 6485   3.578   4.501   1.348  1.0944  0.4468  2.1989
 1408ETH      C 6486   4.139   3.098   4.655 -0.0795 -0.4301  0.4331
 1408ETH     C1 6487   4.007   3.178   4.641 -0.0335  0.3277 -0.2821
 1408ETH      O 6488   3.919   3.135   4.747 -0.1789  0.5168 -0.1495
 1408ETH      H 6489   4.180   3.127   4.753  1.0984  1.8055 -0.6407
 1408ETH     H1 6490   4.213   3.124   4.579 -0.2999 -0.3150  0.2581
 1408ETH     H2 6491   4.118   2.992   4.638  2.3644 -0.4538 -3.8266
 1408ETH     H3 6492   4.021   3.287   4.644 -0.1014  0.3328 -0.0704
 1408ETH     H4 6493   3.954   3.169   4.546 -0.3819  1.5312 -0.2249
 1408ETH     H5 6494   3.942   3.041   4.760  4.0294  1.4076  0.2252
 1409ETH      C 6495   2.373   2.465   1.864 -0.2129  0.2103  0.5460
 1409ETH     C1 6496   2.449   2.454   1.999  0.5233 -0.8074 -0.0009
 1409ETH      O 6497   2.492   2.317   2.025  0.2779  0.2041  0.2151
 1409ETH      H 6498   2.367   2.573   1.845  1.8040  0.4308  0.8981
 1409ETH     H1 6499   2.281   2.408   1.876  0.3832 -0.9149 -0.1299
 1409ETH     H2 6500   2.429   2.426   1.778  0.7831  1.8283  0.4005
 1409ETH     H3 6501   2.543   2.510   1.985  0.3317  0.0745  1.9002
 1409ETH     H4 6502   2.407   2.496   2.091 -0.1733 -0.9730 -0.2410
 1409ETH     H5 6503   2.533   2.273   1.948 -2.6325  0.2741 -1.5347
 1410ETH      C 6504   3.911   3.101   3.950  0.1207  0.2001  0.0736
 1410ETH     C1 6505   3.906   3.035   4.088  0.2710 -0.3909 -0.2427
 1410ETH      O 6506   4.034   3.000   4.139 -0.1736 -0.1470  0.2550
 1410ETH      H 6507   4.001   3.163   3.946 -0.0038  0.3425 -0.7359
 1410ETH     H1 6508   3.827   3.167   3.929 -0.2348 -0.0953  0.5579
 1410ETH     H2 6509   3.913   3.029   3.867 -0.6636  1.8065 -1.3818
 1410ETH     H3 6510   3.865   3.108   4.159 -1.3993  0.1586 -1.6979
 1410ETH     H4 6511   3.838   2.948   4.082 -0.1789  0.0367 -1.5543
 1410ETH     H5 6512   4.009   2.937   4.208  0.2855 -0.5860  0.0249
 1411ETH      C 6513   2.018   4.275   3.419  0.7474  0.1595 -0.1448
 1411ETH     C1 6514   1.966   4.197   3.538  0.3771 -0.3821  0.7769
 1411ETH      O 6515   2.067   4.173   3.632  0.2493  0.4172  0.1167
 1411ETH      H 6516   2.033   4.376   3.459 -1.0287 -0.8865  3.6592
 1411ETH     H1 6517   1.949   4.269   3.334  1.0537  2.1098 -0.5728
 1411ETH     H2 6518   2.113   4.234   3.381  0.2907 -1.1228  0.0411
 1411ETH     H3 6519   1.892   4.269   3.576  1.8889  0.9184  1.3678
 1411ETH     H4 6520   1.917   4.108   3.497  0.5351  0.7731 -2.1746
 1411ETH     H5 6521   2.008   4.152   3.706 -0.0231  0.2594 -0.1440
 1412ETH      C 6522   3.951   0.474   1.115 -0.3760 -0.1015 -0.1790
 1412ETH     C1 6523   3.831   0.483   1.205  0.7926  0.2776 -0.4540
 1412ETH      O 6524   3.843   0.415   1.329  0.2330  0.0925 -0.2641
 1412ETH      H 6525   3.969   0.367   1.096  1.5375  0.1610 -0.0980
 1412ETH     H1 6526   4.034   0.521   1.170 -1.7695  2.1289  0.1406
 1412ETH     H2 6527   3.933   0.515   1.015  0.8220 -0.7557 -0.6979
 1412ETH     H3 6528   3.811   0.588   1.230 -3.2055 -0.1007 -1.2930
 1412ETH     H4 6529   3.740   0.449   1.153  0.8780  0.4144 -0.6942
 1412ETH     H5 6530   3.821   0.483   1.395 -0.4061 -0.6025  0.2559
 1413ETH      C 6531   3.494   3.965   4.969 -0.8223 -0.4250 -0.5034
 1413ETH     C1 6532   3.439   3.831   4.915  0.0733  0.4602  0.4387
 1413ETH      O 6533   3.367   3.858   4.794  0.4450 -0.0097  0.0290
 1413ETH      H 6534   3.408   4.014   5.016 -0.4744 -1.1101  0.9387
 1413ETH     H1 6535   3.546   4.023   4.892  1.5912  0.2273  1.4728
 1413ETH     H2 6536   3.577   3.948   5.039  0.8959  1.8028 -1.8832
 1413ETH     H3 6537   3.527   3.770   4.890 -0.2407  0.7295 -1.4798
 1413ETH     H4 6538   3.384   3.779   4.994  1.1062 -0.5299  0.5411
 1413ETH     H5 6539   3.410   3.821   4.715 -1.1949 -0.2101 -0.8063
 1414ETH      C 6540   3.895   4.844   2.964 -0.1532  0.3520  0.0951
 1414ETH     C1 6541   4.001   4.937   3.001 -0.0887 -0.0031  0.1542
 1414ETH      O 6542   4.114   4.857   3.042 -1.0673  0.5577  0.1811
 1414ETH      H 6543   3.921   4.754   2.907  0.9773 -0.9166  2.4541
 1414ETH     H1 6544   3.806   4.890   2.920  0.7234  0.7005 -1.4053
 1414ETH     H2 6545   3.861   4.800   3.058  1.9252 -2.4012 -0.3200
 1414ETH     H3 6546   4.028   4.991   2.909  1.0482 -0.9894 -0.1178
 1414ETH     H4 6547   3.975   5.012   3.077 -2.1157  1.3865 -1.7885
 1414ETH     H5 6548   4.090   4.800   3.116 -1.0370  2.0010  1.3342
 1415ETH      C 6549   3.306   0.429   3.791  0.1128 -0.0820  0.2185
 1415ETH     C1 6550   3.446   0.480   3.804 -0.3917  0.0420  0.2646
 1415ETH      O 6551   3.441   0.620   3.797 -0.5661 -0.1616  0.0863
 1415ETH      H 6552   3.311   0.322   3.814 -0.3896 -0.7109 -2.2636
 1415ETH     H1 6553   3.273   0.438   3.687  0.7398 -0.6439 -0.0392
 1415ETH     H2 6554   3.227   0.464   3.859 -0.8309  0.5535 -1.1540
 1415ETH     H3 6555   3.468   0.444   3.906 -2.0757 -1.3740  0.1825
 1415ETH     H4 6556   3.513   0.432   3.733 -0.6550 -0.6732  0.4875
 1415ETH     H5 6557   3.515   0.655   3.745 -0.7424  0.3830  0.1907
 1416ETH      C 6558   4.237   0.342   1.895  0.2528 -0.9745  0.2064
 1416ETH     C1 6559   4.096   0.371   1.825 -0.5327 -0.1847  0.6287
 1416ETH      O 6560   3.992   0.294   1.888 -0.1736  0.3073  0.0755
 1416ETH      H 6561   4.236   0.364   2.002  0.8920 -1.0382  0.2331
 1416ETH     H1 6562   4.316   0.406   1.853 -0.2641 -0.5723 -0.1614
 1416ETH     H2 6563   4.273   0.238   1.890 -0.2889 -1.1387 -0.2845
 1416ETH     H3 6564   4.069   0.477   1.835 -0.4844 -0.0891 -0.2054
 1416ETH     H4 6565   4.099   0.349   1.718  0.5547  0.3035  0.5413
 1416ETH     H5 6566   4.004   0.297   1.984  0.9871  0.3223 -0.0576
 1417ETH      C 6567   3.148   4.760   3.719 -0.3785  0.0330 -0.0441
 1417ETH     C1 6568   3.050   4.816   3.821 -0.0818  0.3531  0.5598
 1417ETH      O 6569   2.996   4.718   3.906 -0.4698  0.4468 -0.0636
 1417ETH      H 6570   3.237   4.718   3.766 -0.0890  1.8217  1.0981
 1417ETH     H1 6571   3.176   4.849   3.660 -1.8232  0.4907 -0.0961
 1417ETH     H2 6572   3.107   4.679   3.658 -1.2690  0.1878  0.3286
 1417ETH     H3 6573   3.112   4.892   3.870  1.5992  0.2353 -1.2485
 1417ETH     H4 6574   2.964   4.860   3.769  0.6676 -1.5607 -2.5747
 1417ETH     H5 6575   3.069   4.662   3.936 -1.3955 -0.8146 -0.0660
 1418ETH      C 6576   3.800   1.234   1.926 -0.2923  0.0992 -0.1063
 1418ETH     C1 6577   3.787   1.291   2.071 -0.1527  0.5122  0.3298
 1418ETH      O 6578   3.881   1.234   2.165  0.3068  0.2794 -0.8672
 1418ETH      H 6579   3.907   1.233   1.901 -0.4014 -0.5364 -0.5729
 1418ETH     H1 6580   3.749   1.296   1.852  2.6953  1.3334 -1.3234
 1418ETH     H2 6581   3.765   1.130   1.929  0.7103 -0.2405  1.2801
 1418ETH     H3 6582   3.801   1.397   2.045 -0.6740 -0.0637 -2.6512
 1418ETH     H4 6583   3.687   1.263   2.108  0.2683 -1.6857 -0.0369
 1418ETH     H5 6584   3.913   1.314   2.211  0.4740  0.1193 -0.7010
 1419ETH      C 6585   4.912   4.894   3.541 -0.0969 -1.0302  0.1381
 1419ETH     C1 6586   4.853   4.765   3.480  1.3658  0.5879 -0.3867
 1419ETH      O 6587   4.930   4.721   3.369 -0.0103 -0.3706 -0.0020
 1419ETH      H 6588   4.913   4.969   3.461  0.8038  0.1442  1.2119
 1419ETH     H1 6589   5.015   4.885   3.577  0.7337  1.2320 -1.4239
 1419ETH     H2 6590   4.858   4.928   3.630  3.2394  4.0548  0.6053
 1419ETH     H3 6591   4.844   4.685   3.554 -0.3692 -0.6754 -1.8760
 1419ETH     H4 6592   4.758   4.795   3.434  2.4005  1.4909 -2.0401
 1419ETH     H5 6593   5.020   4.705   3.403 -0.1523 -1.4273 -0.1015
 1420ETH      C 6594   5.380   2.880   2.029 -0.2758  0.0101  0.1299
 1420ETH     C1 6595   5.259   2.932   2.102 -1.1980  0.2310  0.5502
 1420ETH      O 6596   5.170   2.825   2.126 -0.2296 -0.2093 -0.1527
 1420ETH      H 6597   5.458   2.957   2.020  0.2619 -0.1916  2.4289
 1420ETH     H1 6598   5.356   2.860   1.924  1.8640 -1.9891 -0.0587
 1420ETH     H2 6599   5.423   2.792   2.079 -1.7112 -1.1568 -0.6139
 1420ETH     H3 6600   5.286   2.978   2.198 -4.0292 -0.2999  1.6964
 1420ETH     H4 6601   5.213   3.017   2.050  0.6927  1.2784  0.5265
 1420ETH     H5 6602   5.151   2.818   2.222 -0.1681  1.5432  0.0246
 1421ETH      C 6603   4.718   5.429   3.085 -0.1628  0.0063 -0.3974
 1421ETH     C1 6604   4.663   5.370   3.216 -0.2368 -0.7213  0.2847
 1421ETH      O 6605   4.520   5.380   3.221 -0.0039 -0.3262 -0.8361
 1421ETH      H 6606   4.816   5.385   3.064  0.7171  1.2597  1.0038
 1421ETH     H1 6607   4.729   5.535   3.108 -1.7999  0.0439  0.4028
 1421ETH     H2 6608   4.658   5.420   2.993  0.1811 -1.7979 -0.4846
 1421ETH     H3 6609   4.693   5.265   3.212  2.1559 -0.1666 -5.0362
 1421ETH     H4 6610   4.710   5.417   3.303 -2.2552  2.6697 -0.2599
 1421ETH     H5 6611   4.500   5.475   3.213  3.4783  0.8165  1.3899
 1422ETH      C 6612   2.146   0.859   3.955 -1.1949  0.3925  0.4138
 1422ETH     C1 6613   2.273   0.784   3.925 -0.7764  0.5058  0.5484
 1422ETH      O 6614   2.291   0.767   3.786  0.2836 -0.1959  0.0046
 1422ETH      H 6615   2.135   0.950   3.895 -1.0424 -0.4672 -0.9692
 1422ETH     H1 6616   2.146   0.872   4.064  1.7569  0.9035  0.4358
 1422ETH     H2 6617   2.065   0.787   3.941  0.6909 -2.4807  2.8798
 1422ETH     H3 6618   2.365   0.832   3.961  1.2967 -3.8301  1.8141
 1422ETH     H4 6619   2.280   0.684   3.971  1.9275  0.9581  1.3415
 1422ETH     H5 6620   2.352   0.840   3.766  1.1895 -0.9937 -0.2328
 1423ETH      C 6621   3.940   5.553   1.141  0.1553 -0.2429  0.1053
 1423ETH     C1 6622   3.888   5.697   1.151 -0.2441  0.3631  0.2196
 1423ETH      O 6623   3.817   5.707   1.276 -0.0806 -0.3425 -0.4621
 1423ETH      H 6624   3.868   5.474   1.163  0.2463 -1.3812 -3.0931
 1423ETH     H1 6625   4.028   5.549   1.207  1.1187 -0.9278 -1.1703
 1423ETH     H2 6626   3.973   5.528   1.039  0.1428  0.5687 -0.1053
 1423ETH     H3 6627   3.971   5.767   1.142  1.0955 -1.0921  0.7561
 1423ETH     H4 6628   3.821   5.724   1.069 -0.6481 -1.5764 -0.1405
 1423ETH     H5 6629   3.835   5.797   1.307 -1.0064  0.3239 -1.7260
 1424ETH      C 6630   1.127   1.972   3.362  0.4457 -0.8584 -0.3497
 1424ETH     C1 6631   1.180   2.111   3.349  0.1166 -0.3711 -0.0842
 1424ETH      O 6632   1.202   2.133   3.209  0.3075 -0.0041 -0.3853
 1424ETH      H 6633   1.033   1.968   3.306  0.9395 -0.0024 -1.2649
 1424ETH     H1 6634   1.101   1.947   3.466  1.4775  0.6904  0.3230
 1424ETH     H2 6635   1.188   1.895   3.313  1.1159 -0.8901  0.4932
 1424ETH     H3 6636   1.098   2.167   3.397 -0.3949 -1.3774  0.2564
 1424ETH     H4 6637   1.266   2.125   3.415 -0.3546 -0.1615  0.5016
 1424ETH     H5 6638   1.165   2.220   3.186 -2.7140 -0.7960  1.0354
 1425ETH      C 6639   2.019   2.666   3.868  0.7952  0.3295  0.2934
 1425ETH     C1 6640   2.002   2.508   3.828  0.2393 -0.2388 -0.2100
 1425ETH      O 6641   2.086   2.423   3.912  0.0160 -0.3480 -0.0686
 1425ETH      H 6642   1.979   2.689   3.968  3.5315  0.4095  1.4501
 1425ETH     H1 6643   1.976   2.733   3.793  1.6032 -0.6097 -1.0570
 1425ETH     H2 6644   2.127   2.680   3.879  0.5445  0.9768  2.6789
 1425ETH     H3 6645   1.895   2.486   3.839 -0.7246  3.7188 -0.1974
 1425ETH     H4 6646   2.027   2.491   3.723  1.8449 -1.7605  0.3713
 1425ETH     H5 6647   2.046   2.394   3.995 -1.0278 -1.1437 -0.8259
 1426ETH      C 6648   4.501   2.536   2.379 -0.5995 -0.4224 -0.0315
 1426ETH     C1 6649   4.397   2.492   2.280  0.0310  0.0726 -0.0743
 1426ETH      O 6650   4.387   2.346   2.286 -0.4390 -0.0719 -0.5565
 1426ETH      H 6651   4.493   2.484   2.476 -0.5369 -3.3671 -1.5038
 1426ETH     H1 6652   4.483   2.642   2.402  2.4272  0.4823 -1.3440
 1426ETH     H2 6653   4.604   2.511   2.350 -0.8692 -0.6346 -0.8147
 1426ETH     H3 6654   4.300   2.540   2.298  0.2909  1.1530 -1.4297
 1426ETH     H4 6655   4.432   2.521   2.181 -1.5810 -0.8038 -0.9414
 1426ETH     H5 6656   4.343   2.309   2.208 -0.5982  2.1494 -1.6122
 1427ETH      C 6657   2.894   5.082   3.403 -0.0964 -0.1790 -0.2304
 1427ETH     C1 6658   2.808   5.065   3.281  0.3764  0.6535 -0.0360
 1427ETH      O 6659   2.815   5.182   3.196  0.2425  0.2161 -0.8586
 1427ETH      H 6660   2.882   4.989   3.459 -3.2686  0.4578  0.3716
 1427ETH     H1 6661   2.865   5.165   3.469 -0.3914 -0.0377 -0.5317
 1427ETH     H2 6662   2.998   5.110   3.385  0.1161 -1.0061 -0.3104
 1427ETH     H3 6663   2.839   4.975   3.228 -0.7876 -0.3652  0.9455
 1427ETH     H4 6664   2.706   5.046   3.316  1.2008 -0.9372  1.6375
 1427ETH     H5 6665   2.904   5.219   3.205 -0.2321  1.1964 -0.0308
 1428ETH      C 6666   3.684   2.922   4.969 -0.3252 -0.5297  0.6364
 1428ETH     C1 6667   3.812   2.838   4.950 -0.6770 -0.1834  0.2864
 1428ETH      O 6668   3.829   2.807   4.814  0.7284  0.0986  0.2439
 1428ETH      H 6669   3.590   2.870   4.947 -1.6438  1.7882  0.4773
 1428ETH     H1 6670   3.683   3.006   4.899 -2.8786  0.0114  1.2235
 1428ETH     H2 6671   3.682   2.941   5.076  0.2859 -0.6544  0.6764
 1428ETH     H3 6672   3.895   2.902   4.984  0.7049 -2.0651  0.6493
 1428ETH     H4 6673   3.815   2.746   5.010  0.7147 -0.1385  0.3211
 1428ETH     H5 6674   3.840   2.710   4.808 -0.5701  0.0058 -0.9146
 1429ETH      C 6675   3.542   5.750   3.532 -0.3994  1.1218 -0.7678
 1429ETH     C1 6676   3.527   5.690   3.394  0.1514 -0.6809  0.0987
 1429ETH      O 6677   3.388   5.650   3.386 -0.2284 -0.1130  0.1343
 1429ETH      H 6678   3.487   5.843   3.552 -0.7951  0.3130  2.4284
 1429ETH     H1 6679   3.648   5.770   3.552  0.3795 -3.0443  0.2905
 1429ETH     H2 6680   3.516   5.678   3.610 -1.7232  2.9624  0.5954
 1429ETH     H3 6681   3.553   5.764   3.318 -1.3962 -2.2113 -2.0353
 1429ETH     H4 6682   3.592   5.603   3.386  1.7732  0.2671  2.0644
 1429ETH     H5 6683   3.384   5.565   3.432  0.2637 -1.5197 -2.2534
 1430ETH      C 6684   3.564   5.365   2.647  0.0076 -0.2438 -0.0226
 1430ETH     C1 6685   3.700   5.302   2.645  0.1762  1.1425  0.7605
 1430ETH      O 6686   3.706   5.163   2.679  0.6539  0.5661  0.6450
 1430ETH      H 6687   3.519   5.359   2.747 -0.3798  2.3759  0.0288
 1430ETH     H1 6688   3.501   5.308   2.578  1.1616  0.5523 -1.8021
 1430ETH     H2 6689   3.565   5.467   2.607 -1.1594 -0.4521 -0.6149
 1430ETH     H3 6690   3.755   5.322   2.552  1.9082 -1.7671  1.0124
 1430ETH     H4 6691   3.757   5.357   2.721  1.1314 -1.4487  2.0615
 1430ETH     H5 6692   3.796   5.130   2.693  1.0224 -1.5776 -4.6361
 1431ETH      C 6693   4.027   0.577   3.432  0.5074  0.1097 -0.2137
 1431ETH     C1 6694   3.941   0.698   3.402  0.2872  0.2880  0.0106
 1431ETH      O 6695   3.808   0.672   3.401 -0.0669 -0.7278  0.7771
 1431ETH      H 6696   4.111   0.579   3.361 -0.3840  0.0192 -1.2978
 1431ETH     H1 6697   3.964   0.490   3.410  0.6783  0.0163 -0.3378
 1431ETH     H2 6698   4.056   0.556   3.536 -0.9765 -0.2912  0.1344
 1431ETH     H3 6699   3.975   0.766   3.481  1.6087  0.2926 -0.5410
 1431ETH     H4 6700   3.961   0.745   3.305 -1.6007  1.0328 -0.0502
 1431ETH     H5 6701   3.774   0.688   3.312 -0.7241 -1.1909  0.9392
 1432ETH      C 6702   4.711   5.561   2.599 -0.0160 -0.6615 -0.5282
 1432ETH     C1 6703   4.615   5.480   2.685  0.3137  0.0307 -0.0160
 1432ETH      O 6704   4.656   5.342   2.674 -0.9400 -0.3339  0.0552
 1432ETH      H 6705   4.726   5.523   2.497  0.0280  1.5816 -1.4041
 1432ETH     H1 6706   4.810   5.562   2.644 -0.3130  0.2087  0.1220
 1432ETH     H2 6707   4.665   5.660   2.604 -0.3694 -0.8511  0.1973
 1432ETH     H3 6708   4.608   5.518   2.787  1.1202  0.9359 -0.2912
 1432ETH     H4 6709   4.515   5.479   2.639  0.9583  0.5251 -1.4613
 1432ETH     H5 6710   4.595   5.288   2.728  0.8784 -2.2655  0.3174
 1433ETH      C 6711   3.712   3.219   0.536 -0.4062  1.1250  0.4263
 1433ETH     C1 6712   3.645   3.145   0.420  0.0772 -0.4475  0.3757
 1433ETH      O 6713   3.509   3.124   0.450  0.1276  0.0858  0.3338
 1433ETH      H 6714   3.821   3.224   0.528  0.0028 -0.4841  3.3066
 1433ETH     H1 6715   3.668   3.181   0.629  2.6651 -2.4122  0.6738
 1433ETH     H2 6716   3.674   3.321   0.533 -0.4007  1.2029  2.0108
 1433ETH     H3 6717   3.649   3.218   0.337  0.1259  0.9958  1.6022
 1433ETH     H4 6718   3.691   3.051   0.390 -0.5886 -0.2144 -1.5008
 1433ETH     H5 6719   3.474   3.068   0.379 -3.2774  0.7995  1.2265
 1434ETH      C 6720   0.591   2.412   4.033  0.3923  0.2273 -0.2484
 1434ETH     C1 6721   0.530   2.434   3.890 -0.1486  0.5548 -0.6551
 1434ETH      O 6722   0.634   2.432   3.793 -0.3959 -0.4320  0.2650
 1434ETH      H 6723   0.636   2.503   4.077 -2.3164  1.9715 -0.8148
 1434ETH     H1 6724   0.660   2.327   4.032 -1.1482 -1.0756 -1.9330
 1434ETH     H2 6725   0.517   2.395   4.113 -1.3197  0.8736 -1.6245
 1434ETH     H3 6726   0.467   2.351   3.859 -1.2316 -0.0692  2.8536
 1434ETH     H4 6727   0.473   2.528   3.892  0.8600  1.1741  1.4253
 1434ETH     H5 6728   0.687   2.508   3.821  0.0244 -0.1207 -1.2598
 1435ETH      C 6729   3.707   2.438   3.426  0.1089  0.5717  0.0989
 1435ETH     C1 6730   3.571   2.485   3.489  0.0892  0.4839 -0.5067
 1435ETH      O 6731   3.595   2.543   3.621 -0.3015 -0.3902  0.0366
 1435ETH      H 6732   3.750   2.357   3.487  2.5476  2.0452  0.4700
 1435ETH     H1 6733   3.781   2.518   3.418 -0.3356  0.9230 -0.5712
 1435ETH     H2 6734   3.700   2.401   3.323  0.5083 -1.2944  0.6920
 1435ETH     H3 6735   3.539   2.568   3.426  0.0136  0.4656 -0.4915
 1435ETH     H4 6736   3.493   2.408   3.493 -1.9312  2.4449  3.6026
 1435ETH     H5 6737   3.519   2.508   3.671 -0.5813  0.7905  0.4696
 1436ETH      C 6738   3.872   1.930   3.476  0.2760 -0.1096  0.1468
 1436ETH     C1 6739   3.952   1.817   3.398  0.1413  0.2214  0.0465
 1436ETH      O 6740   3.976   1.699   3.484 -0.3272 -0.5181  0.6357
 1436ETH      H 6741   3.855   2.018   3.412  2.4267 -0.0289 -0.3984
 1436ETH     H1 6742   3.930   1.960   3.564  0.6420 -0.0009 -0.1259
 1436ETH     H2 6743   3.777   1.886   3.507  1.4160 -1.6293  1.6934
 1436ETH     H3 6744   3.892   1.787   3.311 -0.8273 -0.6075  0.9725
 1436ETH     H4 6745   4.054   1.849   3.372  1.0119 -1.7721  0.8219
 1436ETH     H5 6746   4.043   1.652   3.433 -0.4534 -0.1183  0.0998
 1437ETH      C 6747   4.304   1.180   4.259 -0.1811  0.2845  0.6812
 1437ETH     C1 6748   4.209   1.057   4.272  0.4487  0.1821 -0.1507
 1437ETH      O 6749   4.066   1.086   4.251  0.3049 -0.0583 -0.2935
 1437ETH      H 6750   4.282   1.242   4.347  0.6597 -2.7982  3.2525
 1437ETH     H1 6751   4.269   1.232   4.169 -3.5110 -0.4316  1.4110
 1437ETH     H2 6752   4.410   1.150   4.263  0.1649  1.5445  1.8210
 1437ETH     H3 6753   4.234   0.990   4.189  1.9044 -0.7345  0.9654
 1437ETH     H4 6754   4.233   0.991   4.356  1.7088 -2.1845 -2.2475
 1437ETH     H5 6755   4.073   1.172   4.206  1.8270  0.7074  1.2969
 1438ETH      C 6756   5.364   3.795   1.990  0.0271 -0.4099  0.4755
 1438ETH     C1 6757   5.308   3.725   2.111  0.0822 -0.4370  0.5295
 1438ETH      O 6758   5.202   3.641   2.072  0.8969 -0.5643  0.2892
 1438ETH      H 6759   5.396   3.727   1.910  0.8071 -1.2564  1.4833
 1438ETH     H1 6760   5.440   3.869   2.016 -0.5193  0.0956  0.6613
 1438ETH     H2 6761   5.280   3.856   1.955  1.6557  1.2525 -0.7091
 1438ETH     H3 6762   5.396   3.673   2.149  0.7625 -0.8408 -1.5156
 1438ETH     H4 6763   5.275   3.794   2.190 -0.5445 -1.3589  1.0928
 1438ETH     H5 6764   5.145   3.684   2.006  1.2598  1.7325  1.3584
 1439ETH      C 6765   3.681   4.560   2.783  0.2606 -0.5992  0.1869
 1439ETH     C1 6766   3.556   4.635   2.743  0.2112 -0.4397  0.4830
 1439ETH      O 6767   3.590   4.750   2.669  0.6558 -0.5621  0.1690
 1439ETH      H 6768   3.666   4.492   2.868 -0.7456 -0.3995  0.1915
 1439ETH     H1 6769   3.752   4.629   2.829  0.6997 -1.0996  0.2675
 1439ETH     H2 6770   3.721   4.511   2.694 -0.2555  1.3335 -1.1563
 1439ETH     H3 6771   3.501   4.567   2.677  1.1660 -1.3258  0.5785
 1439ETH     H4 6772   3.492   4.663   2.828 -0.7218  1.6997 -0.8451
 1439ETH     H5 6773   3.683   4.730   2.649  0.3611 -0.8391 -0.9825
 1440ETH      C 6774   1.360   2.591   4.828 -0.0359 -0.2881 -0.2107
 1440ETH     C1 6775   1.504   2.546   4.821 -0.4682 -0.0765 -0.4108
 1440ETH      O 6776   1.577   2.638   4.747 -0.2740  0.0778  0.1754
 1440ETH      H 6777   1.322   2.589   4.725  1.4322 -0.4524 -0.7681
 1440ETH     H1 6778   1.346   2.698   4.851 -0.5088 -0.2075 -0.8421
 1440ETH     H2 6779   1.309   2.519   4.894  1.6796 -0.2804  1.2008
 1440ETH     H3 6780   1.545   2.541   4.922 -2.3407  1.2033  0.4534
 1440ETH     H4 6781   1.505   2.445   4.778  1.6862 -0.1313 -0.3268
 1440ETH     H5 6782   1.658   2.652   4.799  0.1047  0.2408 -0.4443
 1441ETH      C 6783   1.735   0.166   2.326  0.4934  0.4501  0.4721
 1441ETH     C1 6784   1.725   0.046   2.232 -0.1088 -0.6395 -0.0857
 1441ETH      O 6785   1.717  -0.076   2.309  0.1276 -0.2231  0.1358
 1441ETH      H 6786   1.648   0.171   2.392  0.5224 -0.0434  0.5503
 1441ETH     H1 6787   1.750   0.257   2.267 -0.0897  0.7924  0.8386
 1441ETH     H2 6788   1.827   0.147   2.382  1.0306 -1.2137 -0.9072
 1441ETH     H3 6789   1.632   0.053   2.173 -0.4953 -3.0436  0.1539
 1441ETH     H4 6790   1.810   0.048   2.162 -1.4200  0.0468 -1.7291
 1441ETH     H5 6791   1.677  -0.145   2.254 -2.4133  0.3444  1.0893
 1442ETH      C 6792   1.470   1.294   4.312 -0.1189 -0.4413  0.2734
 1442ETH     C1 6793   1.603   1.331   4.244  0.2925 -0.4961  0.1085
 1442ETH      O 6794   1.627   1.477   4.252  0.0876 -0.0162 -0.0353
 1442ETH      H 6795   1.457   1.342   4.410 -1.4182  1.6681 -0.8383
 1442ETH     H1 6796   1.471   1.187   4.336 -0.2794 -0.2539  1.1489
 1442ETH     H2 6797   1.380   1.319   4.254  0.0940 -1.9497 -0.7737
 1442ETH     H3 6798   1.686   1.285   4.299 -0.2154  1.4774  2.7253
 1442ETH     H4 6799   1.614   1.285   4.145  1.2467 -2.2972  1.0087
 1442ETH     H5 6800   1.548   1.514   4.295 -1.4963 -1.2658 -1.7308
 1443ETH      C 6801   4.286   4.946   1.571  0.1333 -0.5249  0.5116
 1443ETH     C1 6802   4.151   4.880   1.601 -0.4340  0.0086  1.3850
 1443ETH      O 6803   4.048   4.983   1.580  0.1880 -0.0347 -0.2032
 1443ETH      H 6804   4.370   4.875   1.577 -1.1785 -2.1002  1.2727
 1443ETH     H1 6805   4.319   5.031   1.630  0.7490  0.0913 -0.6830
 1443ETH     H2 6806   4.280   4.987   1.470  1.0823 -1.2666  0.1421
 1443ETH     H3 6807   4.128   4.794   1.537 -2.6189  1.6714 -0.2813
 1443ETH     H4 6808   4.150   4.842   1.704 -1.4559 -0.9137  1.0600
 1443ETH     H5 6809   4.031   5.032   1.662  0.6487 -1.0617  0.5307
 1444ETH      C 6810   2.216   3.055   0.295  0.3552 -0.4334  0.2872
 1444ETH     C1 6811   2.316   3.116   0.196 -0.1578 -0.8399 -0.1872
 1444ETH      O 6812   2.438   3.037   0.200 -0.2314 -0.8481 -0.6132
 1444ETH      H 6813   2.127   3.119   0.301  0.3763 -0.1858 -1.5424
 1444ETH     H1 6814   2.267   3.034   0.390 -0.8009 -0.5940  0.8873
 1444ETH     H2 6815   2.184   2.962   0.248  1.8367 -0.0669 -1.5755
 1444ETH     H3 6816   2.269   3.107   0.097  1.7646 -3.2124 -0.9735
 1444ETH     H4 6817   2.338   3.219   0.228  1.3279 -0.4597 -2.2427
 1444ETH     H5 6818   2.405   2.946   0.189 -1.3052 -0.9545  2.3993
 1445ETH      C 6819   2.810   1.815   3.694  0.3709  0.0438  0.5541
 1445ETH     C1 6820   2.690   1.746   3.767 -0.1996 -1.0519 -0.4695
 1445ETH      O 6821   2.738   1.726   3.896 -0.4926  0.2746  0.3960
 1445ETH      H 6822   2.861   1.894   3.749  1.4546 -1.3164  1.5773
 1445ETH     H1 6823   2.774   1.844   3.594 -2.6451 -3.6457  0.3092
 1445ETH     H2 6824   2.883   1.737   3.668  1.2126 -0.4146  3.8601
 1445ETH     H3 6825   2.599   1.806   3.767 -0.2907 -1.1907 -0.3536
 1445ETH     H4 6826   2.675   1.653   3.710  2.3322 -1.5960 -0.3990
 1445ETH     H5 6827   2.740   1.813   3.938 -1.5463 -0.6250  2.4359
 1446ETH      C 6828   2.742   3.266   2.975  0.1463 -0.0557  0.3811
 1446ETH     C1 6829   2.723   3.250   2.817 -0.0576 -0.4216 -0.5833
 1446ETH      O 6830   2.830   3.151   2.793  0.3487  0.0625  0.2374
 1446ETH      H 6831   2.718   3.175   3.030 -2.1694  1.5523  2.2509
 1446ETH     H1 6832   2.698   3.359   3.013 -1.2858 -1.1981  1.5945
 1446ETH     H2 6833   2.850   3.264   2.992  0.1038 -2.4969  0.7020
 1446ETH     H3 6834   2.625   3.205   2.798  0.1847 -0.4360 -1.8942
 1446ETH     H4 6835   2.755   3.343   2.768 -1.4100 -0.0963 -0.9147
 1446ETH     H5 6836   2.904   3.182   2.848  1.0658 -0.7806 -0.2184
 1447ETH      C 6837   2.585   1.038   4.045 -0.0784 -0.2933  0.2564
 1447ETH     C1 6838   2.481   1.146   4.040  0.4252 -0.0026 -0.8405
 1447ETH      O 6839   2.410   1.145   3.921 -0.4366 -0.4986  0.0349
 1447ETH      H 6840   2.643   1.048   4.137  0.6548 -0.6822 -0.1566
 1447ETH     H1 6841   2.656   1.049   3.963  1.2867  1.6323  1.6134
 1447ETH     H2 6842   2.546   0.936   4.036  1.8839 -1.0628  0.0077
 1447ETH     H3 6843   2.410   1.126   4.121 -0.2552 -0.3497 -1.5027
 1447ETH     H4 6844   2.535   1.237   4.066  2.2158 -0.9940 -0.9389
 1447ETH     H5 6845   2.446   1.077   3.861  0.2421 -0.6576  0.6081
 1448ETH      C 6846   2.757   2.614   4.870  0.3268  0.1369  0.0407
 1448ETH     C1 6847   2.890   2.652   4.804  0.0505 -0.3298 -0.9702
 1448ETH      O 6848   2.983   2.536   4.819 -0.0629  0.3918 -0.4537
 1448ETH      H 6849   2.681   2.663   4.808  1.7917 -1.4821 -3.2622
 1448ETH     H1 6850   2.754   2.649   4.974  1.2172 -1.0840  0.5017
 1448ETH     H2 6851   2.738   2.507   4.859 -2.2765  0.4842  0.4568
 1448ETH     H3 6852   2.882   2.674   4.696  3.1284 -1.2715 -1.4761
 1448ETH     H4 6853   2.934   2.741   4.850  0.8936 -0.8816 -0.6981
 1448ETH     H5 6854   2.944   2.456   4.780  1.6927  0.4234 -2.4696
 1449ETH      C 6855   1.436   5.410   2.082 -0.1771 -0.2988 -0.2727
 1449ETH     C1 6856   1.580   5.369   2.099  0.5004  0.4505  0.1440
 1449ETH      O 6857   1.650   5.466   2.179 -0.1798  0.0771 -1.1425
 1449ETH      H 6858   1.428   5.518   2.068  0.4075 -0.4923 -2.4697
 1449ETH     H1 6859   1.381   5.392   2.175 -1.2233 -3.1401 -1.3401
 1449ETH     H2 6860   1.393   5.359   1.996 -3.0208  1.6397 -0.1338
 1449ETH     H3 6861   1.574   5.273   2.152  1.0476  0.1823 -0.2604
 1449ETH     H4 6862   1.629   5.353   2.002 -1.7058  0.5942 -1.0661
 1449ETH     H5 6863   1.739   5.426   2.182  0.6914  1.9256 -1.1994
 1450ETH      C 6864   3.068   0.659   4.061 -0.5688 -0.3045  0.1744
 1450ETH     C1 6865   3.026   0.765   3.965 -0.0096 -0.1856  0.5189
 1450ETH      O 6866   3.058   0.735   3.825  0.1974  0.3641 -0.3082
 1450ETH      H 6867   3.176   0.667   4.076 -0.4054  1.2620 -1.4633
 1450ETH     H1 6868   3.058   0.556   4.026 -0.2507 -0.2191 -0.1729
 1450ETH     H2 6869   3.001   0.660   4.148  1.7395  0.6350  2.0509
 1450ETH     H3 6870   2.917   0.761   3.978 -0.5347  0.9326 -2.5867
 1450ETH     H4 6871   3.065   0.865   3.985  0.2227  0.2207 -1.6767
 1450ETH     H5 6872   3.138   0.681   3.831  0.3472  0.5934 -0.2399
 1451ETH      C 6873   0.926   3.373   2.796  0.3477 -0.1152  0.0599
 1451ETH     C1 6874   0.864   3.507   2.810 -0.4681 -0.7181  0.3898
 1451ETH      O 6875   0.796   3.511   2.941  0.3097 -0.4027  0.6449
 1451ETH      H 6876   0.850   3.294   2.793 -1.2514  1.2542  1.7404
 1451ETH     H1 6877   0.992   3.362   2.884  0.6977  0.4671 -0.1254
 1451ETH     H2 6878   0.991   3.356   2.709 -0.3354 -3.0247  0.0093
 1451ETH     H3 6879   0.935   3.590   2.801 -2.1439  0.6492 -0.8346
 1451ETH     H4 6880   0.794   3.534   2.730  0.1053  2.1842  0.7643
 1451ETH     H5 6881   0.746   3.428   2.950 -0.8996  0.2487  0.1507
 1452ETH      C 6882   3.451   3.967   0.752  0.4139  0.0498  0.3063
 1452ETH     C1 6883   3.399   3.944   0.897 -0.0260 -0.3807 -0.7225
 1452ETH      O 6884   3.321   4.046   0.936  0.2175 -0.4289 -0.6925
 1452ETH      H 6885   3.503   4.064   0.750 -0.4926  0.6077  1.7192
 1452ETH     H1 6886   3.366   3.964   0.683  0.9873  0.3196 -0.4287
 1452ETH     H2 6887   3.519   3.885   0.727  0.3440  0.1267 -0.1458
 1452ETH     H3 6888   3.336   3.853   0.895  0.8364 -0.9896 -0.7576
 1452ETH     H4 6889   3.483   3.922   0.963  0.2440 -0.5712 -1.1211
 1452ETH     H5 6890   3.273   4.026   1.018 -0.4230 -0.0475 -0.9680
 1453ETH      C 6891   4.356   1.965   2.924 -0.0932 -0.1980 -0.1527
 1453ETH     C1 6892   4.478   1.989   2.833 -0.1626 -0.3929 -0.0047
 1453ETH      O 6893   4.452   1.935   2.702  0.1496 -0.0645 -0.5229
 1453ETH      H 6894   4.273   2.030   2.893 -1.7991 -1.7389  1.0256
 1453ETH     H1 6895   4.387   1.986   3.027  2.9269 -1.5453 -0.6578
 1453ETH     H2 6896   4.328   1.860   2.911  1.3757 -0.9332  2.1841
 1453ETH     H3 6897   4.502   2.096   2.831 -0.6234 -0.3002 -1.1979
 1453ETH     H4 6898   4.571   1.944   2.870 -1.0270 -1.3892  1.0328
 1453ETH     H5 6899   4.443   2.005   2.635 -0.3858  0.8885  0.5138
 1454ETH      C 6900   1.453   4.524   2.131  1.1099  0.7459 -0.2365
 1454ETH     C1 6901   1.447   4.387   2.076  0.0738 -0.2120 -0.3979
 1454ETH      O 6902   1.514   4.291   2.159  0.1798  0.1693 -0.8180
 1454ETH      H 6903   1.552   4.569   2.125  1.4311 -0.0636 -1.2976
 1454ETH     H1 6904   1.404   4.517   2.229  0.0670  1.0614 -0.7123
 1454ETH     H2 6905   1.382   4.594   2.085  1.0188  1.5559  1.0804
 1454ETH     H3 6906   1.346   4.347   2.059  0.7052 -1.9785 -0.2314
 1454ETH     H4 6907   1.505   4.386   1.983  2.7480 -2.0034  1.1911
 1454ETH     H5 6908   1.521   4.205   2.115 -0.0643 -0.7529  0.8659
 1455ETH      C 6909   4.414   2.675   2.733 -0.0698  0.1509  0.2943
 1455ETH     C1 6910   4.434   2.655   2.893  0.7460 -0.5775  0.5960
 1455ETH      O 6911   4.552   2.725   2.921  0.0900  0.3977  0.4034
 1455ETH      H 6912   4.506   2.697   2.679 -0.6408  4.0243  0.5419
 1455ETH     H1 6913   4.361   2.771   2.725 -1.2882 -0.3353  1.9827
 1455ETH     H2 6914   4.352   2.592   2.698 -0.3454 -0.3501  1.8920
 1455ETH     H3 6915   4.343   2.699   2.934  0.3562  0.5417 -1.3462
 1455ETH     H4 6916   4.439   2.547   2.912 -1.1763 -1.0262 -1.0676
 1455ETH     H5 6917   4.550   2.796   2.854  0.2470 -1.1155 -1.2704
 1456ETH      C 6918   2.862   3.993   1.001 -0.3617  0.0847  0.0563
 1456ETH     C1 6919   2.728   4.014   0.921  0.3147 -0.2518  0.4704
 1456ETH      O 6920   2.720   4.158   0.896  0.2004 -0.3757  0.2787
 1456ETH      H 6921   2.953   4.026   0.948  0.3360 -0.5761  0.8180
 1456ETH     H1 6922   2.881   3.888   1.028  0.6439  0.3089  0.2598
 1456ETH     H2 6923   2.865   4.049   1.095  2.4742  0.3717 -0.0944
 1456ETH     H3 6924   2.730   3.959   0.827 -1.7030 -0.4793  0.5067
 1456ETH     H4 6925   2.643   3.970   0.974  0.3732 -0.5630  0.3039
 1456ETH     H5 6926   2.637   4.192   0.934 -0.2621  0.4431 -1.3798
 1457ETH      C 6927   2.915   3.562   1.547 -0.0028 -1.0489 -0.1143
 1457ETH     C1 6928   2.864   3.550   1.407 -0.5602 -0.1634 -0.6455
 1457ETH      O 6929   2.882   3.410   1.368 -0.2706  0.0185  0.2982
 1457ETH      H 6930   2.907   3.662   1.591 -1.0014 -1.2821  0.2400
 1457ETH     H1 6931   3.022   3.535   1.548 -0.0492 -1.2464 -0.3385
 1457ETH     H2 6932   2.862   3.494   1.614  1.3041 -0.1888  1.8921
 1457ETH     H3 6933   2.758   3.578   1.402 -0.5986  0.1001  1.1183
 1457ETH     H4 6934   2.926   3.616   1.345  1.0688 -1.6079 -0.6433
 1457ETH     H5 6935   2.809   3.365   1.414  0.6954 -1.3007  0.6056
 1458ETH      C 6936   4.695   1.838   2.030 -0.1568  0.3298  0.0156
 1458ETH     C1 6937   4.585   1.948   2.048 -0.8647 -0.3583 -0.4686
 1458ETH      O 6938   4.492   1.931   1.940  0.2968  0.5833  0.0417
 1458ETH      H 6939   4.780   1.842   2.098 -0.2904 -0.0849  0.2109
 1458ETH     H1 6940   4.748   1.837   1.934 -1.9121 -0.2411 -1.0062
 1458ETH     H2 6941   4.657   1.736   2.046  3.3713 -1.2159 -0.4253
 1458ETH     H3 6942   4.536   1.932   2.145 -0.2761  0.0293 -0.1036
 1458ETH     H4 6943   4.632   2.047   2.043  1.8849 -1.5032  0.9745
 1458ETH     H5 6944   4.518   2.003   1.880  0.2315 -0.0987 -0.8287
 1459ETH      C 6945   4.011   2.072   2.668 -0.5574 -0.2260  0.1008
 1459ETH     C1 6946   4.122   2.004   2.586 -0.0791  0.0072 -1.2005
 1459ETH      O 6947   4.069   1.979   2.455 -0.2411 -0.0577 -0.0982
 1459ETH      H 6948   4.055   2.092   2.766  0.3010  1.0017 -0.5048
 1459ETH     H1 6949   3.926   2.003   2.673 -1.2161  0.5910  0.1676
 1459ETH     H2 6950   3.980   2.163   2.615 -1.5935 -0.8016 -0.3179
 1459ETH     H3 6951   4.211   2.067   2.586  0.6219 -0.8746  1.2331
 1459ETH     H4 6952   4.147   1.909   2.635  0.8090  0.3476 -0.9872
 1459ETH     H5 6953   3.987   1.934   2.481 -0.3489  1.1315  1.7854
 1460ETH      C 6954   4.174   1.551   2.277 -0.0021 -0.1983  0.2671
 1460ETH     C1 6955   4.094   1.416   2.261 -0.2852 -1.0368 -0.2759
 1460ETH      O 6956   3.975   1.421   2.342 -0.0636  0.0166  0.6147
 1460ETH      H 6957   4.268   1.546   2.220  0.1211 -0.3107  0.4751
 1460ETH     H1 6958   4.209   1.569   2.380  1.8872  0.8507 -0.5049
 1460ETH     H2 6959   4.129   1.646   2.245 -0.4985 -1.4142 -2.9335
 1460ETH     H3 6960   4.064   1.414   2.155 -0.8699  4.7480 -0.5679
 1460ETH     H4 6961   4.155   1.327   2.280  0.6583 -0.3010  0.1942
 1460ETH     H5 6962   4.003   1.462   2.426 -2.6872  0.6713  1.2473
 1461ETH      C 6963   3.367   2.221   3.747 -0.9578 -0.1448  0.1475
 1461ETH     C1 6964   3.462   2.317   3.823  0.2560 -0.0243  0.1125
 1461ETH      O 6965   3.424   2.450   3.810 -0.4660  0.0343  0.0645
 1461ETH      H 6966   3.405   2.119   3.760  0.6518  0.5130  0.9767
 1461ETH     H1 6967   3.362   2.241   3.639 -1.7025 -0.1364  0.1809
 1461ETH     H2 6968   3.262   2.220   3.777 -0.3708  0.5356  2.4402
 1461ETH     H3 6969   3.444   2.286   3.926  0.8563  0.3372  0.3353
 1461ETH     H4 6970   3.569   2.300   3.806  0.3074 -0.2997  0.7004
 1461ETH     H5 6971   3.424   2.487   3.900 -0.6298  0.5919 -0.1561
 1462ETH      C 6972   1.754   1.926   4.351  0.0756 -0.0798 -0.1413
 1462ETH     C1 6973   1.793   1.807   4.261 -0.2876  0.2717 -0.5525
 1462ETH      O 6974   1.908   1.841   4.187  0.1502  0.0925 -0.3019
 1462ETH      H 6975   1.835   1.983   4.399 -1.0256 -0.7026  2.6522
 1462ETH     H1 6976   1.680   1.896   4.427  1.4288  0.1115  1.2888
 1462ETH     H2 6977   1.700   2.000   4.290  1.0566  1.6953  1.0518
 1462ETH     H3 6978   1.802   1.721   4.328 -0.9947  1.3173  0.9624
 1462ETH     H4 6979   1.710   1.777   4.197 -0.1248 -0.5725 -0.3781
 1462ETH     H5 6980   1.882   1.909   4.122 -0.4894 -0.2127 -0.3710
 1463ETH      C 6981   1.616   3.089   3.644 -0.2145 -0.0746 -0.1615
 1463ETH     C1 6982   1.709   3.183   3.715  0.5735  0.2043 -0.0417
 1463ETH      O 6983   1.633   3.289   3.780  0.5876  0.0672 -0.2520
 1463ETH      H 6984   1.665   2.996   3.612 -2.0480 -1.0857 -0.1400
 1463ETH     H1 6985   1.570   3.139   3.558 -3.3892  0.2915  1.6153
 1463ETH     H2 6986   1.531   3.049   3.701 -0.8064 -0.3166 -1.1901
 1463ETH     H3 6987   1.772   3.123   3.781  3.2069  0.3715 -2.2708
 1463ETH     H4 6988   1.768   3.230   3.636 -2.7578  1.2555 -2.1336
 1463ETH     H5 6989   1.561   3.246   3.829  0.1774  0.6218 -0.3637
 1464ETH      C 6990   2.023   3.099   3.613  0.1682 -0.3820  0.4012
 1464ETH     C1 6991   1.982   3.153   3.474  0.4702  0.4523  0.1706
 1464ETH      O 6992   1.890   3.051   3.420 -0.3192 -0.0074  0.2364
 1464ETH      H 6993   1.977   3.005   3.645 -0.0837 -1.0811 -1.8425
 1464ETH     H1 6994   1.994   3.178   3.684 -1.9336 -0.1964 -0.5974
 1464ETH     H2 6995   2.133   3.094   3.614  0.3397  2.0417  1.4739
 1464ETH     H3 6996   1.913   3.237   3.483 -2.1041 -1.6599  1.5229
 1464ETH     H4 6997   2.068   3.178   3.411  1.4586 -1.7458  0.5554
 1464ETH     H5 6998   1.936   2.965   3.416 -1.2733 -0.6362  1.7409
 1465ETH      C 6999   4.985   2.081   4.132 -0.4204  0.4456 -0.6535
 1465ETH     C1 7000   4.900   2.201   4.173 -0.3131 -0.3777  0.9124
 1465ETH      O 7001   4.862   2.278   4.054 -0.1994  0.0429 -0.6138
 1465ETH      H 7002   4.921   2.018   4.070  0.7168 -0.1129 -1.2964
 1465ETH     H1 7003   5.022   2.032   4.223  0.4012  0.9811 -0.6879
 1465ETH     H2 7004   5.070   2.118   4.073 -0.4173 -0.2755 -1.1101
 1465ETH     H3 7005   4.811   2.156   4.218  0.3614 -2.6701  0.0982
 1465ETH     H4 7006   4.956   2.267   4.239 -0.6794  0.1148  0.7341
 1465ETH     H5 7007   4.939   2.337   4.039  0.0468  0.2245  1.2021
 1466ETH      C 7008   3.233   3.856   2.107  0.0118 -0.4239  0.2533
 1466ETH     C1 7009   3.372   3.816   2.061  0.1996 -0.3435 -0.4620
 1466ETH      O 7010   3.429   3.750   2.170  0.3142 -0.0043 -0.1216
 1466ETH      H 7011   3.177   3.766   2.136 -0.9433  0.6227  1.7969
 1466ETH     H1 7012   3.162   3.905   2.039  0.6776 -0.2805 -0.3430
 1466ETH     H2 7013   3.229   3.918   2.198 -0.8406  0.3552 -0.2970
 1466ETH     H3 7014   3.371   3.741   1.980  1.5201  1.2191 -1.9933
 1466ETH     H4 7015   3.444   3.896   2.039 -0.3123  0.7432  1.5716
 1466ETH     H5 7016   3.384   3.665   2.177  0.4652 -0.0767 -0.0310
 1467ETH      C 7017   3.722   1.847   4.225  0.5937 -0.6364  0.3155
 1467ETH     C1 7018   3.629   1.756   4.142  0.2635 -0.3704 -0.2457
 1467ETH      O 7019   3.635   1.805   4.008 -0.0314 -0.0813 -0.3045
 1467ETH      H 7020   3.825   1.813   4.208  0.3843 -1.3487  0.4526
 1467ETH     H1 7021   3.702   1.830   4.331  0.4435 -1.3957  0.1681
 1467ETH     H2 7022   3.720   1.954   4.200  3.4752  0.0543  2.4591
 1467ETH     H3 7023   3.665   1.652   4.150  1.2310 -0.2640 -2.5010
 1467ETH     H4 7024   3.526   1.764   4.177  0.0984  2.6615 -1.1918
 1467ETH     H5 7025   3.718   1.771   3.972  0.7532  2.4336 -1.0630
 1468ETH      C 7026   1.045   2.199   4.300 -0.3236 -0.1331  0.3809
 1468ETH     C1 7027   1.173   2.281   4.290 -0.1614 -0.4710  0.3622
 1468ETH      O 7028   1.175   2.366   4.168  0.1478 -0.3964  0.0987
 1468ETH      H 7029   0.954   2.250   4.334 -0.3301  0.9340 -1.1233
 1468ETH     H1 7030   1.075   2.105   4.349  2.4542 -0.2492 -1.2876
 1468ETH     H2 7031   1.035   2.146   4.204 -1.6657 -5.5645  3.1230
 1468ETH     H3 7032   1.163   2.349   4.376  1.8548  4.0335 -2.6361
 1468ETH     H4 7033   1.267   2.225   4.293 -0.3341 -0.7522  0.7036
 1468ETH     H5 7034   1.265   2.346   4.137 -0.2518 -0.9972 -0.6970
 1469ETH      C 7035   1.289   4.251   1.541  0.4868  0.1654  0.4855
 1469ETH     C1 7036   1.373   4.315   1.653  0.9364  0.7863  0.4444
 1469ETH      O 7037   1.486   4.231   1.669  0.0958  0.1825 -0.6866
 1469ETH      H 7038   1.303   4.143   1.546 -0.3789  0.0588  0.6299
 1469ETH     H1 7039   1.318   4.276   1.439 -1.2115 -0.3213 -0.1414
 1469ETH     H2 7040   1.183   4.277   1.554  0.1990 -1.7074  2.3410
 1469ETH     H3 7041   1.403   4.417   1.628  1.4746  0.4631 -0.2721
 1469ETH     H4 7042   1.312   4.316   1.744  0.8348  1.7590  0.3743
 1469ETH     H5 7043   1.545   4.228   1.592 -0.5764 -2.2538 -1.1910
 1470ETH      C 7044   0.593   2.490   4.529 -0.2407 -0.2409  0.4787
 1470ETH     C1 7045   0.526   2.614   4.594 -0.3811 -0.1467 -0.3099
 1470ETH      O 7046   0.497   2.707   4.497 -0.0405  0.2879 -0.1116
 1470ETH      H 7047   0.546   2.404   4.577  1.2874 -1.6334 -0.4105
 1470ETH     H1 7048   0.702   2.498   4.545 -0.3761  1.4666  0.7406
 1470ETH     H2 7049   0.571   2.486   4.421 -1.2430  0.4237  0.6557
 1470ETH     H3 7050   0.438   2.585   4.654  1.2600 -2.0158  1.3460
 1470ETH     H4 7051   0.595   2.663   4.663  2.0875 -2.5601 -0.8914
 1470ETH     H5 7052   0.511   2.663   4.411 -0.9213  2.0907 -1.2259
 1471ETH      C 7053   3.426   3.362   5.135  0.1720 -0.3343  0.6218
 1471ETH     C1 7054   3.381   3.487   5.054 -0.3764 -0.5374 -0.3917
 1471ETH      O 7055   3.264   3.539   5.125  0.4315 -0.1073 -0.1660
 1471ETH      H 7056   3.358   3.278   5.115  2.3832 -1.6097 -2.2135
 1471ETH     H1 7057   3.452   3.381   5.240  2.3275 -0.2254  0.1127
 1471ETH     H2 7058   3.516   3.317   5.091 -1.7002 -3.1028 -0.7231
 1471ETH     H3 7059   3.462   3.561   5.050  0.8030 -1.6969  0.6976
 1471ETH     H4 7060   3.343   3.461   4.955 -1.5307  0.3583 -0.2060
 1471ETH     H5 7061   3.212   3.469   5.168  0.8694  0.0405  0.6452
 1472ETH      C 7062   1.346   2.396   3.493 -1.0508  0.3910 -1.1211
 1472ETH     C1 7063   1.408   2.477   3.613  0.7816  0.8083 -0.0642
 1472ETH      O 7064   1.533   2.425   3.650  0.3012 -0.1721 -0.4030
 1472ETH      H 7065   1.423   2.381   3.416 -2.0214  0.1089 -2.0688
 1472ETH     H1 7066   1.268   2.452   3.439 -0.2258  0.8526 -1.8744
 1472ETH     H2 7067   1.293   2.306   3.527 -0.4939 -0.4275 -2.3490
 1472ETH     H3 7068   1.411   2.578   3.570  1.3081  0.3532 -1.1369
 1472ETH     H4 7069   1.335   2.472   3.695 -1.5915 -2.4771 -2.1062
 1472ETH     H5 7070   1.561   2.502   3.704 -0.7296  0.4795 -0.7549
 1473ETH      C 7071   0.439   2.071   3.296  0.0667 -0.2952 -0.4309
 1473ETH     C1 7072   0.464   2.210   3.248  0.0234 -0.0237 -0.4557
 1473ETH      O 7073   0.513   2.294   3.352 -0.1199  0.2843 -0.1080
 1473ETH      H 7074   0.470   2.068   3.401 -1.0532  0.8775 -0.0425
 1473ETH     H1 7075   0.495   1.990   3.249  2.4578  0.9405  0.1525
 1473ETH     H2 7076   0.333   2.046   3.310 -0.1439  0.5666 -0.4035
 1473ETH     H3 7077   0.540   2.191   3.171  1.0512 -1.1573  0.7651
 1473ETH     H4 7078   0.369   2.253   3.216  0.3588 -0.2719 -1.8756
 1473ETH     H5 7079   0.595   2.335   3.321 -0.3674 -0.3022 -1.6504
 1474ETH      C 7080   0.893   2.919   2.664  0.0630  0.8262  0.3054
 1474ETH     C1 7081   0.743   2.944   2.651  0.1022  0.3394 -0.2293
 1474ETH      O 7082   0.667   2.848   2.731 -0.4697 -0.8745  0.4396
 1474ETH      H 7083   0.916   2.874   2.761  1.4444  2.8049  0.9551
 1474ETH     H1 7084   0.956   3.008   2.650  0.8794  0.6699  2.5872
 1474ETH     H2 7085   0.915   2.844   2.587 -2.3814  1.3763 -1.0418
 1474ETH     H3 7086   0.721   3.045   2.687  0.6435  1.0636 -1.8241
 1474ETH     H4 7087   0.719   2.939   2.544  1.0115  2.7024 -0.5936
 1474ETH     H5 7088   0.707   2.760   2.715 -0.9943 -0.7807 -1.7377
 1475ETH      C 7089   4.152   2.385   2.550  0.1665  0.3237  0.7163
 1475ETH     C1 7090   4.067   2.491   2.477 -0.3754 -1.3287 -0.2401
 1475ETH      O 7091   3.935   2.445   2.472  0.3901  0.2531 -0.4961
 1475ETH      H 7092   4.245   2.440   2.570 -0.5522  1.4065  1.1458
 1475ETH     H1 7093   4.164   2.304   2.477  0.7707 -1.0656  2.2930
 1475ETH     H2 7094   4.100   2.353   2.641  1.8925 -0.9325  1.3025
 1475ETH     H3 7095   4.065   2.587   2.532 -0.9614 -1.0045 -0.8140
 1475ETH     H4 7096   4.110   2.516   2.380 -0.9357 -2.8531 -0.9134
 1475ETH     H5 7097   3.919   2.387   2.548  0.6970 -0.4353 -0.9466
 1476ETH      C 7098   2.013   1.183   1.959  0.4258 -0.3947 -0.3604
 1476ETH     C1 7099   1.894   1.096   1.998  0.4796  0.3619  0.6189
 1476ETH      O 7100   1.845   1.129   2.124 -0.7170 -0.3661  0.1998
 1476ETH      H 7101   1.986   1.288   1.969  1.0607 -0.1850 -0.7974
 1476ETH     H1 7102   2.050   1.164   1.857 -1.4833  1.2183 -1.4157
 1476ETH     H2 7103   2.098   1.169   2.028  0.2056  3.1832  0.8404
 1476ETH     H3 7104   1.819   1.102   1.917  1.0691  1.0510  0.1133
 1476ETH     H4 7105   1.930   0.992   1.999  2.3341  0.9385 -0.7242
 1476ETH     H5 7106   1.776   1.196   2.112 -2.2279 -2.0616 -1.1050
 1477ETH      C 7107   4.532   1.069   2.128  0.1683  0.3964 -0.3601
 1477ETH     C1 7108   4.382   1.038   2.135 -0.1755  0.4806 -0.3392
 1477ETH      O 7109   4.305   1.163   2.152  0.1507  0.0888  0.1293
 1477ETH      H 7110   4.564   1.158   2.072 -1.4116  0.9202 -0.4807
 1477ETH     H1 7111   4.602   0.994   2.090  0.4247 -0.2538  1.3328
 1477ETH     H2 7112   4.564   1.086   2.232 -0.1643  1.8921 -0.4698
 1477ETH     H3 7113   4.349   0.991   2.042  0.3798  1.2935 -0.9578
 1477ETH     H4 7114   4.370   0.968   2.219 -0.4071 -0.3349 -1.0409
 1477ETH     H5 7115   4.245   1.138   2.224 -1.5814  1.8489 -0.6073
 1478ETH      C 7116   4.148   3.006   1.114 -0.4108  0.4455 -0.7617
 1478ETH     C1 7117   4.105   3.132   1.186  0.4137  0.5888 -0.3544
 1478ETH      O 7118   4.047   3.098   1.317  0.4427 -0.6525  0.8951
 1478ETH      H 7119   4.081   2.926   1.147  1.9564 -1.5100 -0.4218
 1478ETH     H1 7120   4.251   2.980   1.143 -0.7678 -0.0449  0.1090
 1478ETH     H2 7121   4.132   3.008   1.006 -3.2341 -2.0894 -0.5148
 1478ETH     H3 7122   4.189   3.202   1.193  0.3893  0.6153 -0.3258
 1478ETH     H4 7123   4.028   3.181   1.125  1.3505  1.7554 -0.6347
 1478ETH     H5 7124   3.951   3.098   1.302  0.4953  2.0832  0.0579
 1479ETH      C 7125   0.586   2.408   2.489 -0.6509 -0.3973 -0.7431
 1479ETH     C1 7126   0.688   2.520   2.545  0.2310 -0.6324 -0.3490
 1479ETH      O 7127   0.647   2.558   2.670 -0.6861 -0.1486 -0.5229
 1479ETH      H 7128   0.601   2.310   2.536 -1.9455 -0.2708 -0.0495
 1479ETH     H1 7129   0.600   2.415   2.380  1.3256  0.2409 -0.4960
 1479ETH     H2 7130   0.484   2.444   2.506 -1.4598 -1.6904 -2.4816
 1479ETH     H3 7131   0.785   2.468   2.545  0.7325  0.2718 -0.3238
 1479ETH     H4 7132   0.695   2.606   2.477 -0.6145  0.0938  0.4429
 1479ETH     H5 7133   0.723   2.573   2.729 -1.4504 -0.7987  0.6536
 1480ETH      C 7134   2.993   4.107   3.292 -0.2260 -0.9589 -0.0388
 1480ETH     C1 7135   2.916   4.174   3.173 -0.3532 -0.9100 -0.1357
 1480ETH      O 7136   2.868   4.082   3.077 -0.2929 -0.1836 -0.6692
 1480ETH      H 7137   2.954   4.149   3.386  2.4772 -2.0930  1.7004
 1480ETH     H1 7138   3.098   4.137   3.286 -0.7254  1.2716  1.2558
 1480ETH     H2 7139   2.976   3.999   3.294 -3.5070 -0.5495  1.2577
 1480ETH     H3 7140   2.834   4.228   3.223  0.6445  0.3008  0.2447
 1480ETH     H4 7141   2.986   4.238   3.117  0.3814 -0.1882  1.5224
 1480ETH     H5 7142   2.806   4.029   3.130  1.5705 -0.7804  1.0296
 1481ETH      C 7143   3.986   0.907   1.650 -0.6382 -0.3720 -0.1945
 1481ETH     C1 7144   3.839   0.880   1.668 -0.8064  1.1803 -0.7135
 1481ETH      O 7145   3.774   0.871   1.552  0.8160 -0.2102  0.1736
 1481ETH      H 7146   4.030   0.858   1.562  0.8025 -0.1313  0.3732
 1481ETH     H1 7147   4.042   0.868   1.736  0.1458  0.1023 -0.4810
 1481ETH     H2 7148   4.008   1.014   1.643 -1.6280 -0.2185 -1.4142
 1481ETH     H3 7149   3.828   0.784   1.718  0.1699  1.6331  0.3991
 1481ETH     H4 7150   3.791   0.944   1.743  0.4079  0.4021  0.7774
 1481ETH     H5 7151   3.813   0.937   1.492 -1.5917 -0.3282 -1.7276
 1482ETH      C 7152   3.527   3.463   1.912 -0.1730  0.1058 -0.7786
 1482ETH     C1 7153   3.657   3.550   1.935 -0.1836 -0.0399 -0.2132
 1482ETH      O 7154   3.755   3.506   1.843  0.4634 -0.0277  0.5689
 1482ETH      H 7155   3.504   3.462   1.805  1.2036 -3.1411 -1.1736
 1482ETH     H1 7156   3.439   3.506   1.961  0.3822 -0.5033  0.8197
 1482ETH     H2 7157   3.544   3.362   1.951  0.4524  0.7109  0.6218
 1482ETH     H3 7158   3.633   3.655   1.915  1.8457  0.6432  0.7020
 1482ETH     H4 7159   3.698   3.534   2.035 -0.4266 -0.9929 -0.2589
 1482ETH     H5 7160   3.835   3.560   1.850  0.7255 -0.4695  1.0204
 1483ETH      C 7161   5.472   2.143   3.076 -0.1421  0.3267  0.2899
 1483ETH     C1 7162   5.386   2.147   3.203 -0.0433 -0.3369 -0.5145
 1483ETH      O 7163   5.463   2.188   3.315 -0.2857 -0.0301 -0.0759
 1483ETH      H 7164   5.519   2.241   3.064 -0.2593  0.3990  0.4163
 1483ETH     H1 7165   5.421   2.100   2.989  2.0824 -1.3598 -0.2839
 1483ETH     H2 7166   5.553   2.074   3.102  0.1876  0.0693 -1.3486
 1483ETH     H3 7167   5.301   2.216   3.198  0.5557  0.4083 -0.6590
 1483ETH     H4 7168   5.345   2.047   3.224 -0.1728 -0.2060 -0.1339
 1483ETH     H5 7169   5.405   2.172   3.392  1.7561  0.1422  1.5946
 1484ETH      C 7170   1.681   0.694   3.183  0.4274 -0.0298 -0.0716
 1484ETH     C1 7171   1.780   0.804   3.228 -0.2482 -0.4228  0.4751
 1484ETH      O 7172   1.812   0.874   3.112 -0.1705 -0.1600 -0.1461
 1484ETH      H 7173   1.638   0.634   3.264  1.0834  0.3633  0.5771
 1484ETH     H1 7174   1.736   0.627   3.116  1.8506  0.4617  0.5725
 1484ETH     H2 7175   1.595   0.744   3.138  0.6044 -0.9740 -1.5280
 1484ETH     H3 7176   1.727   0.868   3.300  2.2530  3.4197 -0.7805
 1484ETH     H4 7177   1.873   0.763   3.268  0.9092  0.2482 -1.3999
 1484ETH     H5 7178   1.832   0.962   3.147  1.1286 -0.6213  0.3347
 1485ETH      C 7179   2.023   4.679   1.835 -0.9936 -0.1855  0.5226
 1485ETH     C1 7180   2.056   4.786   1.731 -0.1107 -0.5906  0.0761
 1485ETH      O 7181   1.932   4.837   1.685  0.1024 -0.0812  0.0806
 1485ETH      H 7182   2.115   4.625   1.859  0.1830  1.3098 -0.4227
 1485ETH     H1 7183   1.960   4.604   1.785  1.0900 -0.5401 -1.7293
 1485ETH     H2 7184   1.978   4.720   1.926  0.1093 -0.4341  1.1949
 1485ETH     H3 7185   2.117   4.869   1.769  0.3952 -0.6946 -0.4859
 1485ETH     H4 7186   2.120   4.739   1.656  1.0210 -1.4589  1.5311
 1485ETH     H5 7187   1.881   4.859   1.766  0.6689  1.1746  0.1146
 1486ETH      C 7188   1.100   4.300   2.255  0.3546  0.3015 -0.0017
 1486ETH     C1 7189   1.106   4.422   2.348 -0.3853 -0.0695  0.3117
 1486ETH      O 7190   1.206   4.388   2.440  0.6212 -0.2512 -0.2873
 1486ETH      H 7191   1.197   4.280   2.208  0.7711 -0.7584  1.2603
 1486ETH     H1 7192   1.023   4.308   2.177  0.1426 -0.0948  0.1659
 1486ETH     H2 7193   1.079   4.214   2.319 -1.1049  0.0889 -0.7231
 1486ETH     H3 7194   1.125   4.516   2.296  1.0219  0.7660  2.1823
 1486ETH     H4 7195   1.012   4.430   2.403 -1.0843 -0.3566 -0.8255
 1486ETH     H5 7196   1.274   4.454   2.416  0.5724 -0.6905 -1.7147
 1487ETH      C 7197   2.140   1.799   3.115 -0.4651  0.0227 -0.1881
 1487ETH     C1 7198   2.069   1.900   3.211 -0.1152 -0.7306  0.4397
 1487ETH      O 7199   2.000   1.995   3.132  0.0954 -0.4220 -0.3270
 1487ETH      H 7200   2.248   1.809   3.132 -0.1987  0.5946 -2.0495
 1487ETH     H1 7201   2.126   1.830   3.011  1.9480  1.1397 -0.2644
 1487ETH     H2 7202   2.107   1.698   3.140 -0.3786  0.3332  1.2955
 1487ETH     H3 7203   1.997   1.843   3.271  0.2919  1.0199  2.7109
 1487ETH     H4 7204   2.138   1.946   3.283  1.0898 -0.4286 -0.8686
 1487ETH     H5 7205   2.065   2.061   3.103 -0.7926  0.9105  0.5969
 1488ETH      C 7206   0.554   3.244   2.393 -0.3609  0.1967  0.2363
 1488ETH     C1 7207   0.476   3.217   2.515  0.1095  0.0464 -0.4674
 1488ETH      O 7208   0.567   3.241   2.624  0.1236 -0.2685  0.4968
 1488ETH      H 7209   0.588   3.348   2.386  0.6910 -0.2612 -4.5469
 1488ETH     H1 7210   0.490   3.218   2.308  1.3634  0.2142 -1.1188
 1488ETH     H2 7211   0.642   3.179   2.389  0.1675  0.8478  0.8546
 1488ETH     H3 7212   0.397   3.293   2.514  0.0532 -0.0000 -2.6730
 1488ETH     H4 7213   0.430   3.118   2.525  1.1341 -0.2876  1.4548
 1488ETH     H5 7214   0.521   3.227   2.708  1.9253 -1.1179  1.3988
 1489ETH      C 7215   2.045   0.883   2.417  0.1209 -0.1864  0.4250
 1489ETH     C1 7216   2.112   0.903   2.555 -0.0696 -0.4337 -0.6095
 1489ETH      O 7217   2.104   0.771   2.627  0.2548  0.3244  0.1651
 1489ETH      H 7218   2.090   0.805   2.354  2.3874  1.7345 -0.4450
 1489ETH     H1 7219   2.037   0.975   2.358 -2.2007 -1.0387 -0.7269
 1489ETH     H2 7220   1.938   0.856   2.423  0.4523 -1.3907  1.3742
 1489ETH     H3 7221   2.217   0.928   2.536 -0.2829  0.7852 -0.2789
 1489ETH     H4 7222   2.066   0.982   2.616  0.8283 -1.0911  0.9927
 1489ETH     H5 7223   2.037   0.782   2.697 -0.6946 -0.0691 -0.6543
 1490ETH      C 7224   4.475   3.445   4.012  0.6085 -0.3728  0.2827
 1490ETH     C1 7225   4.528   3.361   4.126  0.1626 -0.7831  0.0200
 1490ETH      O 7226   4.663   3.337   4.091  0.5076 -0.2553 -0.3247
 1490ETH      H 7227   4.365   3.450   4.010  0.4151 -2.5082  1.9034
 1490ETH     H1 7228   4.506   3.399   3.919  2.2991 -0.3253  0.8010
 1490ETH     H2 7229   4.511   3.549   4.020  0.9928 -0.5182  0.4458
 1490ETH     H3 7230   4.503   3.411   4.221 -0.6102  4.0996 -2.3913
 1490ETH     H4 7231   4.479   3.263   4.129  0.8960 -1.1728 -0.4433
 1490ETH     H5 7232   4.659   3.263   4.029  2.9479  0.6209 -1.6484
 1491ETH      C 7233   2.191   2.743   3.525  0.8614  0.0530 -0.0879
 1491ETH     C1 7234   2.041   2.735   3.497  0.0453  0.6046 -0.4131
 1491ETH      O 7235   2.009   2.819   3.392  0.0339  0.3258 -0.5924
 1491ETH      H 7236   2.219   2.673   3.605 -0.2512 -1.5257 -1.0337
 1491ETH     H1 7237   2.227   2.844   3.545 -2.7237  1.7199 -1.2848
 1491ETH     H2 7238   2.253   2.709   3.441  0.4190 -1.1367  0.0399
 1491ETH     H3 7239   2.005   2.633   3.479 -2.7651  1.5378 -0.6607
 1491ETH     H4 7240   1.983   2.773   3.582 -1.4457  1.2430 -1.6656
 1491ETH     H5 7241   2.017   2.768   3.310  2.3102 -2.1870  1.0379
 1492ETH      C 7242   2.494   2.849   1.315 -0.2067  0.1432 -0.7176
 1492ETH     C1 7243   2.622   2.765   1.336 -0.3317 -0.4781  0.5389
 1492ETH      O 7244   2.599   2.622   1.349 -0.5851 -0.0082  0.3466
 1492ETH      H 7245   2.528   2.952   1.300 -0.0052 -0.1733 -2.7174
 1492ETH     H1 7246   2.425   2.833   1.398 -0.6525  0.5072 -1.0089
 1492ETH     H2 7247   2.447   2.827   1.218 -1.0491  1.4556 -0.6240
 1492ETH     H3 7248   2.696   2.777   1.256  0.0573  1.9792  1.1852
 1492ETH     H4 7249   2.674   2.811   1.422  0.7723 -0.1878 -0.2574
 1492ETH     H5 7250   2.510   2.615   1.309 -0.3569  0.0804 -0.1860
 1493ETH      C 7251   3.298   4.293   0.672 -0.2754 -0.0244  0.1441
 1493ETH     C1 7252   3.149   4.271   0.659  0.8704  0.4722  0.3822
 1493ETH      O 7253   3.121   4.172   0.759  0.7321  0.1705  0.2121
 1493ETH      H 7254   3.346   4.195   0.662 -0.4259 -0.1316  0.4458
 1493ETH     H1 7255   3.341   4.347   0.757  0.6418 -1.4664  0.6286
 1493ETH     H2 7256   3.342   4.337   0.582  1.7386 -1.4916  0.3299
 1493ETH     H3 7257   3.083   4.358   0.671 -2.4168 -1.9415  1.2748
 1493ETH     H4 7258   3.132   4.226   0.560 -3.3990  2.3410  0.0441
 1493ETH     H5 7259   3.208   4.136   0.784  2.3024  2.8060 -0.9467
 1494ETH      C 7260   2.335   4.458   4.036  0.1065  0.2586  0.1315
 1494ETH     C1 7261   2.419   4.401   3.920  0.0526  0.4081 -0.4368
 1494ETH      O 7262   2.326   4.382   3.807  0.2080  0.2303 -0.2771
 1494ETH      H 7263   2.235   4.414   4.038 -1.0185  2.6480  1.2732
 1494ETH     H1 7264   2.320   4.567   4.040  1.0673  0.3602  2.2490
 1494ETH     H2 7265   2.380   4.424   4.130  1.0119  0.2124 -0.3078
 1494ETH     H3 7266   2.514   4.448   3.894 -0.7485  1.3960 -1.7394
 1494ETH     H4 7267   2.438   4.295   3.941  2.2178  0.4310 -1.9750
 1494ETH     H5 7268   2.273   4.463   3.798  0.0779  0.0169 -1.4823
 1495ETH      C 7269   5.693   3.761   2.205  0.2609 -0.3583  1.0040
 1495ETH     C1 7270   5.647   3.886   2.281 -0.7357 -0.1458 -0.1312
 1495ETH      O 7271   5.509   3.906   2.265  0.1857  0.5442  0.1863
 1495ETH      H 7272   5.801   3.749   2.217  0.4348  0.1986  0.1329
 1495ETH     H1 7273   5.674   3.781   2.099 -0.8795 -1.0539  1.0621
 1495ETH     H2 7274   5.637   3.675   2.242  1.0302 -0.6644  1.4759
 1495ETH     H3 7275   5.676   3.883   2.387  1.4142 -0.8442 -0.7003
 1495ETH     H4 7276   5.697   3.975   2.241  0.9330 -1.0779 -0.2060
 1495ETH     H5 7277   5.457   3.851   2.326 -2.0167  2.1843 -0.0923
 1496ETH      C 7278   3.691   1.228   2.723 -0.0115  0.2126 -0.2538
 1496ETH     C1 7279   3.668   1.129   2.835 -0.3686 -0.0513  0.1175
 1496ETH      O 7280   3.763   1.017   2.820  0.1765 -0.2655 -0.1048
 1496ETH      H 7281   3.789   1.276   2.733  1.4703 -2.0623 -2.7211
 1496ETH     H1 7282   3.609   1.302   2.731 -0.7832 -0.5074 -1.2706
 1496ETH     H2 7283   3.691   1.174   2.628  1.1344  1.3300 -0.9159
 1496ETH     H3 7284   3.671   1.176   2.934 -3.8071  0.3125  0.1775
 1496ETH     H4 7285   3.568   1.084   2.826 -0.7300  0.8112 -0.2875
 1496ETH     H5 7286   3.780   1.007   2.725 -3.1481 -2.5488 -0.6281
 1497ETH      C 7287   4.281   2.876   1.482 -0.7521 -0.1768 -0.1533
 1497ETH     C1 7288   4.288   3.015   1.553  0.3221 -0.3225  0.0597
 1497ETH      O 7289   4.309   3.111   1.453 -0.3182  0.2340  0.0081
 1497ETH      H 7290   4.183   2.857   1.437 -1.3111 -3.1528  1.9873
 1497ETH     H1 7291   4.287   2.809   1.569 -2.2131  1.5915  1.4017
 1497ETH     H2 7292   4.360   2.855   1.409 -0.2904 -0.1830  0.3381
 1497ETH     H3 7293   4.195   3.033   1.608  1.8279  2.6371  1.9083
 1497ETH     H4 7294   4.369   3.026   1.627  0.6621  2.4954 -0.6425
 1497ETH     H5 7295   4.213   3.123   1.436 -1.0045 -1.4133  2.2408
 1498ETH      C 7296   4.479   3.574   1.275  0.3203  0.1960  0.1764
 1498ETH     C1 7297   4.343   3.622   1.216  0.0581 -0.5905 -0.4864
 1498ETH      O 7298   4.264   3.696   1.310  0.6120  0.3113  0.0205
 1498ETH      H 7299   4.465   3.513   1.365 -1.7389  1.0399  0.4719
 1498ETH     H1 7300   4.544   3.661   1.286 -0.7489  1.0448 -0.0527
 1498ETH     H2 7301   4.537   3.508   1.210  1.6212 -4.3603  5.1720
 1498ETH     H3 7302   4.355   3.661   1.115  0.5315  1.0387  0.1671
 1498ETH     H4 7303   4.265   3.549   1.193 -3.9982  2.3344  2.3642
 1498ETH     H5 7304   4.175   3.664   1.287  1.0435  0.8904 -2.8891
 1499ETH      C 7305   3.113   4.062   4.304 -0.5126  0.2804 -0.4411
 1499ETH     C1 7306   3.020   4.005   4.415 -0.3723 -0.1878 -0.1077
 1499ETH      O 7307   3.053   3.870   4.431  0.0111  0.3465  0.6989
 1499ETH      H 7308   3.110   4.008   4.209  1.5447  1.1559 -1.0663
 1499ETH     H1 7309   3.215   4.063   4.346 -0.9689  0.1899  0.7041
 1499ETH     H2 7310   3.086   4.167   4.288 -0.0803  0.4702  0.0303
 1499ETH     H3 7311   3.035   4.056   4.510 -0.1118  1.2303 -0.8843
 1499ETH     H4 7312   2.915   4.016   4.385 -1.0707  2.7624  2.9130
 1499ETH     H5 7313   3.034   3.833   4.519  3.9718 -0.0511  1.5682
 1500ETH      C 7314   1.701   4.982   3.017 -0.2620  0.3123 -0.4708
 1500ETH     C1 7315   1.800   5.089   2.965  0.3813 -0.1010 -0.2823
 1500ETH      O 7316   1.928   5.034   2.948 -0.2045 -0.3002 -0.4232
 1500ETH      H 7317   1.686   4.901   2.946  0.6578  1.6906 -2.3235
 1500ETH     H1 7318   1.605   5.022   3.053 -0.6215 -0.7713 -0.1843
 1500ETH     H2 7319   1.744   4.939   3.108 -1.0624  0.5964  0.0566
 1500ETH     H3 7320   1.766   5.139   2.874 -0.4328 -0.7451 -0.3496
 1500ETH     H4 7321   1.801   5.166   3.043 -0.7642 -1.1502  0.8353
 1500ETH     H5 7322   1.987   5.112   2.952 -3.2639  2.2778  3.4097
 1501ETH      C 7323   4.333   4.442   2.368  0.3322 -0.3739  0.4796
 1501ETH     C1 7324   4.250   4.337   2.285  0.2869 -0.2556 -0.1233
 1501ETH      O 7325   4.329   4.223   2.280 -0.2284  0.0003 -0.2801
 1501ETH      H 7326   4.292   4.543   2.353 -0.5213 -0.9547 -1.4739
 1501ETH     H1 7327   4.435   4.449   2.328  0.4496 -1.9171  0.4744
 1501ETH     H2 7328   4.339   4.418   2.474 -0.6752 -1.6839  0.2535
 1501ETH     H3 7329   4.159   4.319   2.343 -0.3915  2.2600 -0.2828
 1501ETH     H4 7330   4.225   4.375   2.185  2.7257  0.4372 -0.5241
 1501ETH     H5 7331   4.334   4.192   2.373 -0.4221  2.4768  0.6121
 1502ETH      C 7332   1.853   3.514   3.407 -0.1000  0.4313  0.0238
 1502ETH     C1 7333   1.994   3.496   3.360  0.0218  0.1052  0.4523
 1502ETH      O 7334   1.980   3.434   3.230  0.1525  0.4537 -0.0861
 1502ETH      H 7335   1.797   3.420   3.396 -1.0882  0.6738  2.3473
 1502ETH     H1 7336   1.802   3.599   3.362 -1.7271 -0.3796  0.2432
 1502ETH     H2 7337   1.851   3.534   3.515 -2.2969  0.1322  0.0853
 1502ETH     H3 7338   2.036   3.597   3.345 -4.2183  1.6868 -2.9517
 1502ETH     H4 7339   2.061   3.439   3.425  0.4552 -1.1451 -1.0227
 1502ETH     H5 7340   2.064   3.459   3.189  1.4216 -0.2176  1.9442
 1503ETH      C 7341   3.999   3.445   3.053  0.2742  0.3008  0.0242
 1503ETH     C1 7342   3.880   3.423   2.953 -0.1215  0.0558 -0.4781
 1503ETH      O 7343   3.844   3.540   2.878 -0.6444  0.5348  0.2500
 1503ETH      H 7344   4.034   3.351   3.096 -0.0335  1.5860  3.3206
 1503ETH     H1 7345   3.954   3.516   3.123 -0.9513 -1.1629  0.7657
 1503ETH     H2 7346   4.078   3.503   3.003 -2.3104  3.0913 -1.1201
 1503ETH     H3 7347   3.902   3.337   2.889  3.4740  0.7226 -0.3467
 1503ETH     H4 7348   3.796   3.405   3.021  0.4681  2.3008  0.9425
 1503ETH     H5 7349   3.762   3.516   2.832 -0.0610 -1.1224  0.0123
 1504ETH      C 7350   4.806   4.044   3.227 -0.0005 -0.1926  0.0988
 1504ETH     C1 7351   4.705   3.980   3.138 -0.0034 -0.5425 -0.4430
 1504ETH      O 7352   4.756   3.990   3.008  0.3607 -0.6156  0.0756
 1504ETH      H 7353   4.906   4.015   3.194  0.2932 -0.6232  1.3018
 1504ETH     H1 7354   4.780   4.029   3.333 -1.1215  0.3174 -0.0879
 1504ETH     H2 7355   4.809   4.151   3.203 -1.9606 -0.5857 -2.3828
 1504ETH     H3 7356   4.700   3.873   3.163  1.0850 -1.0734 -2.2977
 1504ETH     H4 7357   4.610   4.034   3.148  0.1267 -0.6856  3.2328
 1504ETH     H5 7358   4.840   3.941   3.004  1.0839  0.5534  0.5139
 1505ETH      C 7359   3.078   4.732   2.511 -0.2439  0.4273  0.5579
 1505ETH     C1 7360   3.194   4.810   2.448  0.3904 -0.0863  0.1991
 1505ETH      O 7361   3.154   4.933   2.398  0.3784  0.4981  0.3017
 1505ETH      H 7362   3.119   4.638   2.551 -2.3436 -0.5416  0.6204
 1505ETH     H1 7363   2.996   4.718   2.439 -0.4714 -0.0842  0.9071
 1505ETH     H2 7364   3.043   4.786   2.599 -1.2062 -2.6929  2.2467
 1505ETH     H3 7365   3.266   4.835   2.527  1.0195  0.2524 -0.4699
 1505ETH     H4 7366   3.243   4.742   2.377 -0.9463  0.7577 -1.5811
 1505ETH     H5 7367   3.204   5.002   2.445 -0.1188  1.5120 -0.6085
 1506ETH      C 7368   0.033   4.244   3.367 -0.1051  0.5605 -0.3525
 1506ETH     C1 7369   0.045   4.104   3.302  0.2020 -0.0657 -0.4966
 1506ETH      O 7370  -0.078   4.078   3.227  0.4807  0.0999 -0.2205
 1506ETH      H 7371   0.128   4.267   3.417 -0.0999  0.4763 -0.3242
 1506ETH     H1 7372  -0.048   4.234   3.440 -0.0610 -0.6735 -0.4622
 1506ETH     H2 7373   0.011   4.321   3.292 -1.6080  0.8169  0.3157
 1506ETH     H3 7374   0.137   4.099   3.244  3.4556 -0.7824  4.1488
 1506ETH     H4 7375   0.066   4.024   3.375  0.1288 -1.6210 -2.1015
 1506ETH     H5 7376  -0.148   4.082   3.295  2.8440  0.1103  2.4223
 1507ETH      C 7377   5.746   3.868   2.822  0.3668  1.0372 -0.1462
 1507ETH     C1 7378   5.784   3.777   2.940  0.2665 -0.9457  0.3609
 1507ETH      O 7379   5.668   3.695   2.972  0.0552 -0.0501  0.4511
 1507ETH      H 7380   5.646   3.910   2.838  0.2769  0.1097  2.1726
 1507ETH     H1 7381   5.727   3.807   2.733  2.5530 -1.5328  0.9946
 1507ETH     H2 7382   5.816   3.951   2.806  1.5397  0.6024  2.2500
 1507ETH     H3 7383   5.865   3.708   2.915 -0.6182 -1.4100 -1.3669
 1507ETH     H4 7384   5.817   3.844   3.021 -0.2424  1.7197 -1.4749
 1507ETH     H5 7385   5.592   3.751   2.997 -0.6680 -0.8540  0.1037
 1508ETH      C 7386   2.879   2.881   3.092  0.1033 -0.3093  0.3574
 1508ETH     C1 7387   3.017   2.900   3.030  0.0588 -0.3811 -0.1967
 1508ETH      O 7388   3.108   2.951   3.134  0.0085  0.3658 -0.8810
 1508ETH      H 7389   2.802   2.867   3.015 -0.3355 -0.5727  0.8370
 1508ETH     H1 7390   2.853   2.967   3.154 -2.6369 -0.0956 -0.9217
 1508ETH     H2 7391   2.876   2.788   3.151  0.4915  0.3245  1.4165
 1508ETH     H3 7392   3.044   2.798   2.998  0.6134 -0.3772  0.2362
 1508ETH     H4 7393   3.006   2.972   2.948 -1.1550  0.5076  0.7078
 1508ETH     H5 7394   3.170   2.880   3.158 -0.8833  0.5533  2.4751
 1509ETH      C 7395   5.249   4.616   3.274  0.5115  0.5779  0.2670
 1509ETH     C1 7396   5.286   4.587   3.420  0.2167  0.4595 -0.5843
 1509ETH      O 7397   5.157   4.567   3.486  0.1566  0.3145 -0.0871
 1509ETH      H 7398   5.189   4.533   3.234  1.0814  0.3458 -0.1369
 1509ETH     H1 7399   5.336   4.616   3.207 -1.3042  0.6724 -2.2423
 1509ETH     H2 7400   5.200   4.714   3.267 -0.7396 -0.0590 -0.1419
 1509ETH     H3 7401   5.346   4.498   3.445 -1.5546 -0.2945  1.2383
 1509ETH     H4 7402   5.332   4.678   3.458  1.4505 -0.9841  1.6242
 1509ETH     H5 7403   5.111   4.491   3.448 -1.3418  0.1352  1.9429
 1510ETH      C 7404   2.226   2.385   0.643  0.2593  0.2389 -0.9547
 1510ETH     C1 7405   2.329   2.343   0.753  0.1958  0.0598  0.8023
 1510ETH      O 7406   2.465   2.375   0.720 -0.3484  0.1450 -0.0144
 1510ETH      H 7407   2.216   2.494   0.642  1.9014  0.4110 -1.9864
 1510ETH     H1 7408   2.125   2.351   0.670  0.5505 -0.9987 -1.3576
 1510ETH     H2 7409   2.264   2.351   0.546 -1.7537 -2.1655 -0.9989
 1510ETH     H3 7410   2.303   2.385   0.850  0.0474 -1.8654  1.6499
 1510ETH     H4 7411   2.316   2.235   0.767 -3.0234  0.2956  0.3247
 1510ETH     H5 7412   2.520   2.333   0.788 -0.0494  1.1722  0.4002
   5.80000   5.80000   5.80000
