; smiles_molecule_GMX_OPLS.top created by acpype (v: 2023.10.27) on Tue Apr 28 20:19:46 2026

; Include forcefield parameters
#include "ffoplsaa.itp"

; Include smiles_molecule_GMX.itp topology
#include "smiles_molecule_GMX.itp"

; Ligand position restraints
#ifdef POSRES_LIG
#include "posre_smiles_molecule.itp"
#endif

[ system ]
 smiles_molecule

[ molecules ]
; Compound        nmols
 smiles_molecule  1     
