smiles_molecule_GMX.gro created by acpype (v: 2023.10.27) on Tue Apr 28 20:19:46 2026
 9
    1  UNL    C    1   0.100  -0.010   0.001
    1  UNL   C1    2   0.050   0.128   0.041
    1  UNL    O    3   0.096   0.225  -0.051
    1  UNL    H    4   0.065  -0.035  -0.100
    1  UNL   H1    5   0.064  -0.086   0.071
    1  UNL   H2    6   0.209  -0.012  -0.001
    1  UNL   H3    7  -0.059   0.130   0.041
    1  UNL   H4    8   0.085   0.154   0.141
    1  UNL   H5    9   0.194   0.223  -0.049
    5.37200     6.22200     4.82400
