*****
     9
   0.9960000  -0.0950000   0.0110000   0.4980000   1.2770000   0.4130000
   0.9640000   2.2520000  -0.5090000   0.6540000  -0.3490000  -0.9980000
   0.6390000  -0.8590000   0.7070000   2.0910000  -0.1200000  -0.0090000
  -0.5950000   1.3030000   0.4140000   0.8510000   1.5450000   1.4140000
   1.9360000   2.2300000  -0.4940000
