; CLS_GMX.top created by acpype (v: 2022.6.6) on Sat Jul 13 23:03:50 2024

;[ defaults ]
; nbfunc        comb-rule       gen-pairs       fudgeLJ fudgeQQ
;1               2               yes             0.5     0.8333333333

;[ atomtypes ]
;name   bond_type     mass     charge   ptype   sigma         epsilon       Amb
; hc       hc          0.00000  0.00000   A     2.60018e-01   8.70272e-02 ; 1.46  0.0208
; c3       c3          0.00000  0.00000   A     3.39771e-01   4.51035e-01 ; 1.91  0.1078
; h2       h2          0.00000  0.00000   A     2.24382e-01   8.70272e-02 ; 1.26  0.0208
; h1       h1          0.00000  0.00000   A     2.42200e-01   8.70272e-02 ; 1.36  0.0208
; oh       oh          0.00000  0.00000   A     3.24287e-01   3.89112e-01 ; 1.82  0.0930
; ho       ho          0.00000  0.00000   A     5.37925e-02   1.96648e-02 ; 0.30  0.0047
; os       os          0.00000  0.00000   A     3.15610e-01   3.03758e-01 ; 1.77  0.0726

; Generated from single-chain topology by duplicating disconnected chains.
; Chain count: 10

[ moleculetype ]
;name            nrexcl
CLS10            3

[ atoms ]
;   nr  type  resi  res  atom  cgnr     charge      mass       ; qtot   bond_type

     1   hc     1  CLSA    H1      1     0.200362      1.00800
     2   c3     1  CLSA    C1      2    -0.585849     12.01000
     3   c3     1  CLSA    C2      3     0.673631     12.01000
     4   c3     1  CLSA    C3      4     0.487689     12.01000
     5   c3     1  CLSA    C4      5     0.404717     12.01000
     6   c3     1  CLSA    C5      6     0.164999     12.01000
     7   h2     1  CLSA    H2      7    -0.027274      1.00800
     8   hc     1  CLSA    H3      8     0.200358      1.00800
     9   h1     1  CLSA    H4      9     0.065963      1.00800
    10   h1     1  CLSA    H5     10     0.094726      1.00800
    11   h1     1  CLSA    H6     11     0.035151      1.00800
    12   oh     1  CLSA    O1     12    -0.664304     16.00000
    13   ho     1  CLSA    H7     13     0.431771      1.00800
    14   oh     1  CLSA    O2     14    -0.715181     16.00000
    15   ho     1  CLSA    H8     15     0.455262      1.00800
    16   os     1  CLSA    O3     16    -0.632999     16.00000
    17   c3     1  CLSA    C6     17     0.254848     12.01000
    18   h1     1  CLSA    H9     18     0.052609      1.00800
    19   h1     1  CLSA   H10     19     0.052609      1.00800
    20   oh     1  CLSA    O4     20    -0.703040     16.00000
    21   ho     1  CLSA   H11     21     0.431119      1.00800
    22   os     1  CLSA    O5     22    -0.677167     16.00000
    23   c3     2  CLSB    C7     23     0.445714     12.01000
    24   c3     2  CLSB    C8     24     0.597090     12.01000
    25   c3     2  CLSB    C9     25    -0.324668     12.01000
    26   c3     2  CLSB   C10     26     0.160098     12.01000
    27   c3     2  CLSB   C11     27    -0.003373     12.01000
    28   h1     2  CLSB   H12     28     0.155773      1.00800
    29   h1     2  CLSB   H13     29    -0.028704      1.00800
    30   h1     2  CLSB   H14     30    -0.015081      1.00800
    31   h2     2  CLSB   H15     31     0.224924      1.00800
    32   h1     2  CLSB   H16     32    -0.020067      1.00800
    33   os     2  CLSB    O6     33    -0.426236     16.00000
    34   c3     2  CLSB   C12     34     0.237508     12.01000
    35   h1     2  CLSB   H17     35    -0.007249      1.00800
    36   h1     2  CLSB   H18     36    -0.007249      1.00800
    37   oh     2  CLSB    O7     37    -0.616120     16.00000
    38   ho     2  CLSB   H19     38     0.399525      1.00800
    39   oh     2  CLSB    O8     39    -0.702619     16.00000
    40   ho     2  CLSB   H20     40     0.389713      1.00800
    41   oh     2  CLSB    O9     41    -0.633195     16.00000
    42   ho     2  CLSB   H21     42     0.461444      1.00800
    43   os     2  CLSB   O10     43    -0.287228     16.00000
    44   c3     3  CLSA   C13     44     0.637636     12.01000
    45   c3     3  CLSA   C14     45     0.614409     12.01000
    46   c3     3  CLSA   C15     46    -0.171285     12.01000
    47   c3     3  CLSA   C16     47     0.057885     12.01000
    48   c3     3  CLSA   C17     48     0.025095     12.01000
    49   h2     3  CLSA   H22     49    -0.062662      1.00800
    50   h1     3  CLSA   H23     50     0.011734      1.00800
    51   h1     3  CLSA   H24     51     0.143671      1.00800
    52   h1     3  CLSA   H25     52     0.105109      1.00800
    53   h1     3  CLSA   H26     53     0.095129      1.00800
    54   oh     3  CLSA   O11     54    -0.719513     16.00000
    55   ho     3  CLSA   H27     55     0.456171      1.00800
    56   oh     3  CLSA   O12     56    -0.730793     16.00000
    57   ho     3  CLSA   H28     57     0.469856      1.00800
    58   os     3  CLSA   O13     58    -0.474002     16.00000
    59   c3     3  CLSA   C18     59     0.333344     12.01000
    60   h1     3  CLSA   H29     60    -0.008659      1.00800
    61   h1     3  CLSA   H30     61    -0.008659      1.00800
    62   oh     3  CLSA   O14     62    -0.714216     16.00000
    63   ho     3  CLSA   H31     63     0.419428      1.00800
    64   os     3  CLSA   O15     64    -0.479678     16.00000
    65   c3     4  CLSB   C19     65     0.445714     12.01000
    66   c3     4  CLSB   C20     66     0.597090     12.01000
    67   c3     4  CLSB   C21     67    -0.324668     12.01000
    68   c3     4  CLSB   C22     68     0.160098     12.01000
    69   c3     4  CLSB   C23     69    -0.003373     12.01000
    70   h1     4  CLSB   H32     70     0.155773      1.00800
    71   h1     4  CLSB   H33     71    -0.028704      1.00800
    72   h1     4  CLSB   H34     72    -0.015081      1.00800
    73   h2     4  CLSB   H35     73     0.224924      1.00800
    74   h1     4  CLSB   H36     74    -0.020067      1.00800
    75   os     4  CLSB   O16     75    -0.426236     16.00000
    76   c3     4  CLSB   C24     76     0.237508     12.01000
    77   h1     4  CLSB   H37     77    -0.007249      1.00800
    78   h1     4  CLSB   H38     78    -0.007249      1.00800
    79   oh     4  CLSB   O17     79    -0.616120     16.00000
    80   ho     4  CLSB   H39     80     0.399525      1.00800
    81   oh     4  CLSB   O18     81    -0.702619     16.00000
    82   ho     4  CLSB   H40     82     0.389713      1.00800
    83   oh     4  CLSB   O19     83    -0.633195     16.00000
    84   ho     4  CLSB   H41     84     0.461444      1.00800
    85   os     4  CLSB   O20     85    -0.287228     16.00000
    86   c3     5  CLSA   C25     86     0.637636     12.01000
    87   c3     5  CLSA   C26     87     0.614409     12.01000
    88   c3     5  CLSA   C27     88    -0.171285     12.01000
    89   c3     5  CLSA   C28     89     0.057885     12.01000
    90   c3     5  CLSA   C29     90     0.025095     12.01000
    91   h2     5  CLSA   H42     91    -0.062662      1.00800
    92   h1     5  CLSA   H43     92     0.011734      1.00800
    93   h1     5  CLSA   H44     93     0.143671      1.00800
    94   h1     5  CLSA   H45     94     0.105109      1.00800
    95   h1     5  CLSA   H46     95     0.095129      1.00800
    96   oh     5  CLSA   O21     96    -0.719513     16.00000
    97   ho     5  CLSA   H47     97     0.456171      1.00800
    98   oh     5  CLSA   O22     98    -0.730793     16.00000
    99   ho     5  CLSA   H48     99     0.469856      1.00800
   100   os     5  CLSA   O23    100    -0.474002     16.00000
   101   c3     5  CLSA   C30    101     0.333344     12.01000
   102   h1     5  CLSA   H49    102    -0.008659      1.00800
   103   h1     5  CLSA   H50    103    -0.008659      1.00800
   104   oh     5  CLSA   O24    104    -0.714216     16.00000
   105   ho     5  CLSA   H51    105     0.419428      1.00800
   106   os     5  CLSA   O25    106    -0.479678     16.00000
   107   c3     6  CLSB   C31    107     0.445714     12.01000
   108   c3     6  CLSB   C32    108     0.597090     12.01000
   109   c3     6  CLSB   C33    109    -0.324668     12.01000
   110   c3     6  CLSB   C34    110     0.160098     12.01000
   111   c3     6  CLSB   C35    111    -0.003373     12.01000
   112   h1     6  CLSB   H52    112     0.155773      1.00800
   113   h1     6  CLSB   H53    113    -0.028704      1.00800
   114   h1     6  CLSB   H54    114    -0.015081      1.00800
   115   h2     6  CLSB   H55    115     0.224924      1.00800
   116   h1     6  CLSB   H56    116    -0.020067      1.00800
   117   os     6  CLSB   O26    117    -0.426236     16.00000
   118   c3     6  CLSB   C36    118     0.237508     12.01000
   119   h1     6  CLSB   H57    119    -0.007249      1.00800
   120   h1     6  CLSB   H58    120    -0.007249      1.00800
   121   oh     6  CLSB   O27    121    -0.616120     16.00000
   122   ho     6  CLSB   H59    122     0.399525      1.00800
   123   oh     6  CLSB   O28    123    -0.702619     16.00000
   124   ho     6  CLSB   H60    124     0.389713      1.00800
   125   oh     6  CLSB   O29    125    -0.633195     16.00000
   126   ho     6  CLSB   H61    126     0.461444      1.00800
   127   os     6  CLSB   O30    127    -0.287228     16.00000
   128   c3     7  CLSA   C37    128     0.637636     12.01000
   129   c3     7  CLSA   C38    129     0.614409     12.01000
   130   c3     7  CLSA   C39    130    -0.171285     12.01000
   131   c3     7  CLSA   C40    131     0.057885     12.01000
   132   c3     7  CLSA   C41    132     0.025095     12.01000
   133   h2     7  CLSA   H62    133    -0.062662      1.00800
   134   h1     7  CLSA   H63    134     0.011734      1.00800
   135   h1     7  CLSA   H64    135     0.143671      1.00800
   136   h1     7  CLSA   H65    136     0.105109      1.00800
   137   h1     7  CLSA   H66    137     0.095129      1.00800
   138   oh     7  CLSA   O31    138    -0.719513     16.00000
   139   ho     7  CLSA   H67    139     0.456171      1.00800
   140   oh     7  CLSA   O32    140    -0.730793     16.00000
   141   ho     7  CLSA   H68    141     0.469856      1.00800
   142   os     7  CLSA   O33    142    -0.474002     16.00000
   143   c3     7  CLSA   C42    143     0.333344     12.01000
   144   h1     7  CLSA   H69    144    -0.008659      1.00800
   145   h1     7  CLSA   H70    145    -0.008659      1.00800
   146   oh     7  CLSA   O34    146    -0.714216     16.00000
   147   ho     7  CLSA   H71    147     0.419428      1.00800
   148   os     7  CLSA   O35    148    -0.479678     16.00000
   149   c3     8  CLSB   C43    149     0.445714     12.01000
   150   c3     8  CLSB   C44    150     0.597090     12.01000
   151   c3     8  CLSB   C45    151    -0.324668     12.01000
   152   c3     8  CLSB   C46    152     0.160098     12.01000
   153   c3     8  CLSB   C47    153    -0.003373     12.01000
   154   h1     8  CLSB   H72    154     0.155773      1.00800
   155   h1     8  CLSB   H73    155    -0.028704      1.00800
   156   h1     8  CLSB   H74    156    -0.015081      1.00800
   157   h2     8  CLSB   H75    157     0.224924      1.00800
   158   h1     8  CLSB   H76    158    -0.020067      1.00800
   159   os     8  CLSB   O36    159    -0.426236     16.00000
   160   c3     8  CLSB   C48    160     0.237508     12.01000
   161   h1     8  CLSB   H77    161    -0.007249      1.00800
   162   h1     8  CLSB   H78    162    -0.007249      1.00800
   163   oh     8  CLSB   O37    163    -0.616120     16.00000
   164   ho     8  CLSB   H79    164     0.399525      1.00800
   165   oh     8  CLSB   O38    165    -0.702619     16.00000
   166   ho     8  CLSB   H80    166     0.389713      1.00800
   167   oh     8  CLSB   O39    167    -0.633195     16.00000
   168   ho     8  CLSB   H81    168     0.461444      1.00800
   169   os     8  CLSB   O40    169    -0.287228     16.00000
   170   c3     9  CLSA   C49    170     0.637636     12.01000
   171   c3     9  CLSA   C50    171     0.614409     12.01000
   172   c3     9  CLSA   C51    172    -0.171285     12.01000
   173   c3     9  CLSA   C52    173     0.057885     12.01000
   174   c3     9  CLSA   C53    174     0.025095     12.01000
   175   h2     9  CLSA   H82    175    -0.062662      1.00800
   176   h1     9  CLSA   H83    176     0.011734      1.00800
   177   h1     9  CLSA   H84    177     0.143671      1.00800
   178   h1     9  CLSA   H85    178     0.105109      1.00800
   179   h1     9  CLSA   H86    179     0.095129      1.00800
   180   oh     9  CLSA   O41    180    -0.719513     16.00000
   181   ho     9  CLSA   H87    181     0.456171      1.00800
   182   oh     9  CLSA   O42    182    -0.730793     16.00000
   183   ho     9  CLSA   H88    183     0.469856      1.00800
   184   os     9  CLSA   O43    184    -0.474002     16.00000
   185   c3     9  CLSA   C54    185     0.333344     12.01000
   186   h1     9  CLSA   H89    186    -0.008659      1.00800
   187   h1     9  CLSA   H90    187    -0.008659      1.00800
   188   oh     9  CLSA   O44    188    -0.714216     16.00000
   189   ho     9  CLSA   H91    189     0.419428      1.00800
   190   os     9  CLSA   O45    190    -0.479678     16.00000
   191   c3    10  CLSB   C55    191     0.121602     12.01000
   192   c3    10  CLSB   C56    192     0.308032     12.01000
   193   c3    10  CLSB   C57    193     0.133071     12.01000
   194   c3    10  CLSB   C58    194    -0.022837     12.01000
   195   c3    10  CLSB   C59    195     0.295514     12.01000
   196   h1    10  CLSB   H92    196     0.088041      1.00800
   197   h1    10  CLSB   H93    197    -0.010095      1.00800
   198   h1    10  CLSB   H94    198     0.097376      1.00800
   199   h2    10  CLSB   H95    199     0.148218      1.00800
   200   h1    10  CLSB   H96    200     0.062262      1.00800
   201   os    10  CLSB   O46    201    -0.432195     16.00000
   202   c3    10  CLSB   C60    202     0.095527     12.01000
   203   h1    10  CLSB   H97    203     0.080630      1.00800
   204   h1    10  CLSB   H98    204     0.080630      1.00800
   205   oh    10  CLSB   O47    205    -0.623019     16.00000
   206   ho    10  CLSB   H99    206     0.399676      1.00800
   207   oh    10  CLSB   O48    207    -0.693951     16.00000
   208   ho    10  CLSB  H100    208     0.435324      1.00800
   209   oh    10  CLSB   O49    209    -0.785687     16.00000
   210   ho    10  CLSB  H101    210     0.500547      1.00800
   211   oh    10  CLSB   O50    211    -0.712798     16.00000
   212   ho    10  CLSB  H102    212     0.434132      1.00800
   213   hc    11  CLSA    H1    213     0.200362      1.00800
   214   c3    11  CLSA    C1    214    -0.585849     12.01000
   215   c3    11  CLSA    C2    215     0.673631     12.01000
   216   c3    11  CLSA    C3    216     0.487689     12.01000
   217   c3    11  CLSA    C4    217     0.404717     12.01000
   218   c3    11  CLSA    C5    218     0.164999     12.01000
   219   h2    11  CLSA    H2    219    -0.027274      1.00800
   220   hc    11  CLSA    H3    220     0.200358      1.00800
   221   h1    11  CLSA    H4    221     0.065963      1.00800
   222   h1    11  CLSA    H5    222     0.094726      1.00800
   223   h1    11  CLSA    H6    223     0.035151      1.00800
   224   oh    11  CLSA    O1    224    -0.664304     16.00000
   225   ho    11  CLSA    H7    225     0.431771      1.00800
   226   oh    11  CLSA    O2    226    -0.715181     16.00000
   227   ho    11  CLSA    H8    227     0.455262      1.00800
   228   os    11  CLSA    O3    228    -0.632999     16.00000
   229   c3    11  CLSA    C6    229     0.254848     12.01000
   230   h1    11  CLSA    H9    230     0.052609      1.00800
   231   h1    11  CLSA   H10    231     0.052609      1.00800
   232   oh    11  CLSA    O4    232    -0.703040     16.00000
   233   ho    11  CLSA   H11    233     0.431119      1.00800
   234   os    11  CLSA    O5    234    -0.677167     16.00000
   235   c3    12  CLSB    C7    235     0.445714     12.01000
   236   c3    12  CLSB    C8    236     0.597090     12.01000
   237   c3    12  CLSB    C9    237    -0.324668     12.01000
   238   c3    12  CLSB   C10    238     0.160098     12.01000
   239   c3    12  CLSB   C11    239    -0.003373     12.01000
   240   h1    12  CLSB   H12    240     0.155773      1.00800
   241   h1    12  CLSB   H13    241    -0.028704      1.00800
   242   h1    12  CLSB   H14    242    -0.015081      1.00800
   243   h2    12  CLSB   H15    243     0.224924      1.00800
   244   h1    12  CLSB   H16    244    -0.020067      1.00800
   245   os    12  CLSB    O6    245    -0.426236     16.00000
   246   c3    12  CLSB   C12    246     0.237508     12.01000
   247   h1    12  CLSB   H17    247    -0.007249      1.00800
   248   h1    12  CLSB   H18    248    -0.007249      1.00800
   249   oh    12  CLSB    O7    249    -0.616120     16.00000
   250   ho    12  CLSB   H19    250     0.399525      1.00800
   251   oh    12  CLSB    O8    251    -0.702619     16.00000
   252   ho    12  CLSB   H20    252     0.389713      1.00800
   253   oh    12  CLSB    O9    253    -0.633195     16.00000
   254   ho    12  CLSB   H21    254     0.461444      1.00800
   255   os    12  CLSB   O10    255    -0.287228     16.00000
   256   c3    13  CLSA   C13    256     0.637636     12.01000
   257   c3    13  CLSA   C14    257     0.614409     12.01000
   258   c3    13  CLSA   C15    258    -0.171285     12.01000
   259   c3    13  CLSA   C16    259     0.057885     12.01000
   260   c3    13  CLSA   C17    260     0.025095     12.01000
   261   h2    13  CLSA   H22    261    -0.062662      1.00800
   262   h1    13  CLSA   H23    262     0.011734      1.00800
   263   h1    13  CLSA   H24    263     0.143671      1.00800
   264   h1    13  CLSA   H25    264     0.105109      1.00800
   265   h1    13  CLSA   H26    265     0.095129      1.00800
   266   oh    13  CLSA   O11    266    -0.719513     16.00000
   267   ho    13  CLSA   H27    267     0.456171      1.00800
   268   oh    13  CLSA   O12    268    -0.730793     16.00000
   269   ho    13  CLSA   H28    269     0.469856      1.00800
   270   os    13  CLSA   O13    270    -0.474002     16.00000
   271   c3    13  CLSA   C18    271     0.333344     12.01000
   272   h1    13  CLSA   H29    272    -0.008659      1.00800
   273   h1    13  CLSA   H30    273    -0.008659      1.00800
   274   oh    13  CLSA   O14    274    -0.714216     16.00000
   275   ho    13  CLSA   H31    275     0.419428      1.00800
   276   os    13  CLSA   O15    276    -0.479678     16.00000
   277   c3    14  CLSB   C19    277     0.445714     12.01000
   278   c3    14  CLSB   C20    278     0.597090     12.01000
   279   c3    14  CLSB   C21    279    -0.324668     12.01000
   280   c3    14  CLSB   C22    280     0.160098     12.01000
   281   c3    14  CLSB   C23    281    -0.003373     12.01000
   282   h1    14  CLSB   H32    282     0.155773      1.00800
   283   h1    14  CLSB   H33    283    -0.028704      1.00800
   284   h1    14  CLSB   H34    284    -0.015081      1.00800
   285   h2    14  CLSB   H35    285     0.224924      1.00800
   286   h1    14  CLSB   H36    286    -0.020067      1.00800
   287   os    14  CLSB   O16    287    -0.426236     16.00000
   288   c3    14  CLSB   C24    288     0.237508     12.01000
   289   h1    14  CLSB   H37    289    -0.007249      1.00800
   290   h1    14  CLSB   H38    290    -0.007249      1.00800
   291   oh    14  CLSB   O17    291    -0.616120     16.00000
   292   ho    14  CLSB   H39    292     0.399525      1.00800
   293   oh    14  CLSB   O18    293    -0.702619     16.00000
   294   ho    14  CLSB   H40    294     0.389713      1.00800
   295   oh    14  CLSB   O19    295    -0.633195     16.00000
   296   ho    14  CLSB   H41    296     0.461444      1.00800
   297   os    14  CLSB   O20    297    -0.287228     16.00000
   298   c3    15  CLSA   C25    298     0.637636     12.01000
   299   c3    15  CLSA   C26    299     0.614409     12.01000
   300   c3    15  CLSA   C27    300    -0.171285     12.01000
   301   c3    15  CLSA   C28    301     0.057885     12.01000
   302   c3    15  CLSA   C29    302     0.025095     12.01000
   303   h2    15  CLSA   H42    303    -0.062662      1.00800
   304   h1    15  CLSA   H43    304     0.011734      1.00800
   305   h1    15  CLSA   H44    305     0.143671      1.00800
   306   h1    15  CLSA   H45    306     0.105109      1.00800
   307   h1    15  CLSA   H46    307     0.095129      1.00800
   308   oh    15  CLSA   O21    308    -0.719513     16.00000
   309   ho    15  CLSA   H47    309     0.456171      1.00800
   310   oh    15  CLSA   O22    310    -0.730793     16.00000
   311   ho    15  CLSA   H48    311     0.469856      1.00800
   312   os    15  CLSA   O23    312    -0.474002     16.00000
   313   c3    15  CLSA   C30    313     0.333344     12.01000
   314   h1    15  CLSA   H49    314    -0.008659      1.00800
   315   h1    15  CLSA   H50    315    -0.008659      1.00800
   316   oh    15  CLSA   O24    316    -0.714216     16.00000
   317   ho    15  CLSA   H51    317     0.419428      1.00800
   318   os    15  CLSA   O25    318    -0.479678     16.00000
   319   c3    16  CLSB   C31    319     0.445714     12.01000
   320   c3    16  CLSB   C32    320     0.597090     12.01000
   321   c3    16  CLSB   C33    321    -0.324668     12.01000
   322   c3    16  CLSB   C34    322     0.160098     12.01000
   323   c3    16  CLSB   C35    323    -0.003373     12.01000
   324   h1    16  CLSB   H52    324     0.155773      1.00800
   325   h1    16  CLSB   H53    325    -0.028704      1.00800
   326   h1    16  CLSB   H54    326    -0.015081      1.00800
   327   h2    16  CLSB   H55    327     0.224924      1.00800
   328   h1    16  CLSB   H56    328    -0.020067      1.00800
   329   os    16  CLSB   O26    329    -0.426236     16.00000
   330   c3    16  CLSB   C36    330     0.237508     12.01000
   331   h1    16  CLSB   H57    331    -0.007249      1.00800
   332   h1    16  CLSB   H58    332    -0.007249      1.00800
   333   oh    16  CLSB   O27    333    -0.616120     16.00000
   334   ho    16  CLSB   H59    334     0.399525      1.00800
   335   oh    16  CLSB   O28    335    -0.702619     16.00000
   336   ho    16  CLSB   H60    336     0.389713      1.00800
   337   oh    16  CLSB   O29    337    -0.633195     16.00000
   338   ho    16  CLSB   H61    338     0.461444      1.00800
   339   os    16  CLSB   O30    339    -0.287228     16.00000
   340   c3    17  CLSA   C37    340     0.637636     12.01000
   341   c3    17  CLSA   C38    341     0.614409     12.01000
   342   c3    17  CLSA   C39    342    -0.171285     12.01000
   343   c3    17  CLSA   C40    343     0.057885     12.01000
   344   c3    17  CLSA   C41    344     0.025095     12.01000
   345   h2    17  CLSA   H62    345    -0.062662      1.00800
   346   h1    17  CLSA   H63    346     0.011734      1.00800
   347   h1    17  CLSA   H64    347     0.143671      1.00800
   348   h1    17  CLSA   H65    348     0.105109      1.00800
   349   h1    17  CLSA   H66    349     0.095129      1.00800
   350   oh    17  CLSA   O31    350    -0.719513     16.00000
   351   ho    17  CLSA   H67    351     0.456171      1.00800
   352   oh    17  CLSA   O32    352    -0.730793     16.00000
   353   ho    17  CLSA   H68    353     0.469856      1.00800
   354   os    17  CLSA   O33    354    -0.474002     16.00000
   355   c3    17  CLSA   C42    355     0.333344     12.01000
   356   h1    17  CLSA   H69    356    -0.008659      1.00800
   357   h1    17  CLSA   H70    357    -0.008659      1.00800
   358   oh    17  CLSA   O34    358    -0.714216     16.00000
   359   ho    17  CLSA   H71    359     0.419428      1.00800
   360   os    17  CLSA   O35    360    -0.479678     16.00000
   361   c3    18  CLSB   C43    361     0.445714     12.01000
   362   c3    18  CLSB   C44    362     0.597090     12.01000
   363   c3    18  CLSB   C45    363    -0.324668     12.01000
   364   c3    18  CLSB   C46    364     0.160098     12.01000
   365   c3    18  CLSB   C47    365    -0.003373     12.01000
   366   h1    18  CLSB   H72    366     0.155773      1.00800
   367   h1    18  CLSB   H73    367    -0.028704      1.00800
   368   h1    18  CLSB   H74    368    -0.015081      1.00800
   369   h2    18  CLSB   H75    369     0.224924      1.00800
   370   h1    18  CLSB   H76    370    -0.020067      1.00800
   371   os    18  CLSB   O36    371    -0.426236     16.00000
   372   c3    18  CLSB   C48    372     0.237508     12.01000
   373   h1    18  CLSB   H77    373    -0.007249      1.00800
   374   h1    18  CLSB   H78    374    -0.007249      1.00800
   375   oh    18  CLSB   O37    375    -0.616120     16.00000
   376   ho    18  CLSB   H79    376     0.399525      1.00800
   377   oh    18  CLSB   O38    377    -0.702619     16.00000
   378   ho    18  CLSB   H80    378     0.389713      1.00800
   379   oh    18  CLSB   O39    379    -0.633195     16.00000
   380   ho    18  CLSB   H81    380     0.461444      1.00800
   381   os    18  CLSB   O40    381    -0.287228     16.00000
   382   c3    19  CLSA   C49    382     0.637636     12.01000
   383   c3    19  CLSA   C50    383     0.614409     12.01000
   384   c3    19  CLSA   C51    384    -0.171285     12.01000
   385   c3    19  CLSA   C52    385     0.057885     12.01000
   386   c3    19  CLSA   C53    386     0.025095     12.01000
   387   h2    19  CLSA   H82    387    -0.062662      1.00800
   388   h1    19  CLSA   H83    388     0.011734      1.00800
   389   h1    19  CLSA   H84    389     0.143671      1.00800
   390   h1    19  CLSA   H85    390     0.105109      1.00800
   391   h1    19  CLSA   H86    391     0.095129      1.00800
   392   oh    19  CLSA   O41    392    -0.719513     16.00000
   393   ho    19  CLSA   H87    393     0.456171      1.00800
   394   oh    19  CLSA   O42    394    -0.730793     16.00000
   395   ho    19  CLSA   H88    395     0.469856      1.00800
   396   os    19  CLSA   O43    396    -0.474002     16.00000
   397   c3    19  CLSA   C54    397     0.333344     12.01000
   398   h1    19  CLSA   H89    398    -0.008659      1.00800
   399   h1    19  CLSA   H90    399    -0.008659      1.00800
   400   oh    19  CLSA   O44    400    -0.714216     16.00000
   401   ho    19  CLSA   H91    401     0.419428      1.00800
   402   os    19  CLSA   O45    402    -0.479678     16.00000
   403   c3    20  CLSB   C55    403     0.121602     12.01000
   404   c3    20  CLSB   C56    404     0.308032     12.01000
   405   c3    20  CLSB   C57    405     0.133071     12.01000
   406   c3    20  CLSB   C58    406    -0.022837     12.01000
   407   c3    20  CLSB   C59    407     0.295514     12.01000
   408   h1    20  CLSB   H92    408     0.088041      1.00800
   409   h1    20  CLSB   H93    409    -0.010095      1.00800
   410   h1    20  CLSB   H94    410     0.097376      1.00800
   411   h2    20  CLSB   H95    411     0.148218      1.00800
   412   h1    20  CLSB   H96    412     0.062262      1.00800
   413   os    20  CLSB   O46    413    -0.432195     16.00000
   414   c3    20  CLSB   C60    414     0.095527     12.01000
   415   h1    20  CLSB   H97    415     0.080630      1.00800
   416   h1    20  CLSB   H98    416     0.080630      1.00800
   417   oh    20  CLSB   O47    417    -0.623019     16.00000
   418   ho    20  CLSB   H99    418     0.399676      1.00800
   419   oh    20  CLSB   O48    419    -0.693951     16.00000
   420   ho    20  CLSB  H100    420     0.435324      1.00800
   421   oh    20  CLSB   O49    421    -0.785687     16.00000
   422   ho    20  CLSB  H101    422     0.500547      1.00800
   423   oh    20  CLSB   O50    423    -0.712798     16.00000
   424   ho    20  CLSB  H102    424     0.434132      1.00800
   425   hc    21  CLSA    H1    425     0.200362      1.00800
   426   c3    21  CLSA    C1    426    -0.585849     12.01000
   427   c3    21  CLSA    C2    427     0.673631     12.01000
   428   c3    21  CLSA    C3    428     0.487689     12.01000
   429   c3    21  CLSA    C4    429     0.404717     12.01000
   430   c3    21  CLSA    C5    430     0.164999     12.01000
   431   h2    21  CLSA    H2    431    -0.027274      1.00800
   432   hc    21  CLSA    H3    432     0.200358      1.00800
   433   h1    21  CLSA    H4    433     0.065963      1.00800
   434   h1    21  CLSA    H5    434     0.094726      1.00800
   435   h1    21  CLSA    H6    435     0.035151      1.00800
   436   oh    21  CLSA    O1    436    -0.664304     16.00000
   437   ho    21  CLSA    H7    437     0.431771      1.00800
   438   oh    21  CLSA    O2    438    -0.715181     16.00000
   439   ho    21  CLSA    H8    439     0.455262      1.00800
   440   os    21  CLSA    O3    440    -0.632999     16.00000
   441   c3    21  CLSA    C6    441     0.254848     12.01000
   442   h1    21  CLSA    H9    442     0.052609      1.00800
   443   h1    21  CLSA   H10    443     0.052609      1.00800
   444   oh    21  CLSA    O4    444    -0.703040     16.00000
   445   ho    21  CLSA   H11    445     0.431119      1.00800
   446   os    21  CLSA    O5    446    -0.677167     16.00000
   447   c3    22  CLSB    C7    447     0.445714     12.01000
   448   c3    22  CLSB    C8    448     0.597090     12.01000
   449   c3    22  CLSB    C9    449    -0.324668     12.01000
   450   c3    22  CLSB   C10    450     0.160098     12.01000
   451   c3    22  CLSB   C11    451    -0.003373     12.01000
   452   h1    22  CLSB   H12    452     0.155773      1.00800
   453   h1    22  CLSB   H13    453    -0.028704      1.00800
   454   h1    22  CLSB   H14    454    -0.015081      1.00800
   455   h2    22  CLSB   H15    455     0.224924      1.00800
   456   h1    22  CLSB   H16    456    -0.020067      1.00800
   457   os    22  CLSB    O6    457    -0.426236     16.00000
   458   c3    22  CLSB   C12    458     0.237508     12.01000
   459   h1    22  CLSB   H17    459    -0.007249      1.00800
   460   h1    22  CLSB   H18    460    -0.007249      1.00800
   461   oh    22  CLSB    O7    461    -0.616120     16.00000
   462   ho    22  CLSB   H19    462     0.399525      1.00800
   463   oh    22  CLSB    O8    463    -0.702619     16.00000
   464   ho    22  CLSB   H20    464     0.389713      1.00800
   465   oh    22  CLSB    O9    465    -0.633195     16.00000
   466   ho    22  CLSB   H21    466     0.461444      1.00800
   467   os    22  CLSB   O10    467    -0.287228     16.00000
   468   c3    23  CLSA   C13    468     0.637636     12.01000
   469   c3    23  CLSA   C14    469     0.614409     12.01000
   470   c3    23  CLSA   C15    470    -0.171285     12.01000
   471   c3    23  CLSA   C16    471     0.057885     12.01000
   472   c3    23  CLSA   C17    472     0.025095     12.01000
   473   h2    23  CLSA   H22    473    -0.062662      1.00800
   474   h1    23  CLSA   H23    474     0.011734      1.00800
   475   h1    23  CLSA   H24    475     0.143671      1.00800
   476   h1    23  CLSA   H25    476     0.105109      1.00800
   477   h1    23  CLSA   H26    477     0.095129      1.00800
   478   oh    23  CLSA   O11    478    -0.719513     16.00000
   479   ho    23  CLSA   H27    479     0.456171      1.00800
   480   oh    23  CLSA   O12    480    -0.730793     16.00000
   481   ho    23  CLSA   H28    481     0.469856      1.00800
   482   os    23  CLSA   O13    482    -0.474002     16.00000
   483   c3    23  CLSA   C18    483     0.333344     12.01000
   484   h1    23  CLSA   H29    484    -0.008659      1.00800
   485   h1    23  CLSA   H30    485    -0.008659      1.00800
   486   oh    23  CLSA   O14    486    -0.714216     16.00000
   487   ho    23  CLSA   H31    487     0.419428      1.00800
   488   os    23  CLSA   O15    488    -0.479678     16.00000
   489   c3    24  CLSB   C19    489     0.445714     12.01000
   490   c3    24  CLSB   C20    490     0.597090     12.01000
   491   c3    24  CLSB   C21    491    -0.324668     12.01000
   492   c3    24  CLSB   C22    492     0.160098     12.01000
   493   c3    24  CLSB   C23    493    -0.003373     12.01000
   494   h1    24  CLSB   H32    494     0.155773      1.00800
   495   h1    24  CLSB   H33    495    -0.028704      1.00800
   496   h1    24  CLSB   H34    496    -0.015081      1.00800
   497   h2    24  CLSB   H35    497     0.224924      1.00800
   498   h1    24  CLSB   H36    498    -0.020067      1.00800
   499   os    24  CLSB   O16    499    -0.426236     16.00000
   500   c3    24  CLSB   C24    500     0.237508     12.01000
   501   h1    24  CLSB   H37    501    -0.007249      1.00800
   502   h1    24  CLSB   H38    502    -0.007249      1.00800
   503   oh    24  CLSB   O17    503    -0.616120     16.00000
   504   ho    24  CLSB   H39    504     0.399525      1.00800
   505   oh    24  CLSB   O18    505    -0.702619     16.00000
   506   ho    24  CLSB   H40    506     0.389713      1.00800
   507   oh    24  CLSB   O19    507    -0.633195     16.00000
   508   ho    24  CLSB   H41    508     0.461444      1.00800
   509   os    24  CLSB   O20    509    -0.287228     16.00000
   510   c3    25  CLSA   C25    510     0.637636     12.01000
   511   c3    25  CLSA   C26    511     0.614409     12.01000
   512   c3    25  CLSA   C27    512    -0.171285     12.01000
   513   c3    25  CLSA   C28    513     0.057885     12.01000
   514   c3    25  CLSA   C29    514     0.025095     12.01000
   515   h2    25  CLSA   H42    515    -0.062662      1.00800
   516   h1    25  CLSA   H43    516     0.011734      1.00800
   517   h1    25  CLSA   H44    517     0.143671      1.00800
   518   h1    25  CLSA   H45    518     0.105109      1.00800
   519   h1    25  CLSA   H46    519     0.095129      1.00800
   520   oh    25  CLSA   O21    520    -0.719513     16.00000
   521   ho    25  CLSA   H47    521     0.456171      1.00800
   522   oh    25  CLSA   O22    522    -0.730793     16.00000
   523   ho    25  CLSA   H48    523     0.469856      1.00800
   524   os    25  CLSA   O23    524    -0.474002     16.00000
   525   c3    25  CLSA   C30    525     0.333344     12.01000
   526   h1    25  CLSA   H49    526    -0.008659      1.00800
   527   h1    25  CLSA   H50    527    -0.008659      1.00800
   528   oh    25  CLSA   O24    528    -0.714216     16.00000
   529   ho    25  CLSA   H51    529     0.419428      1.00800
   530   os    25  CLSA   O25    530    -0.479678     16.00000
   531   c3    26  CLSB   C31    531     0.445714     12.01000
   532   c3    26  CLSB   C32    532     0.597090     12.01000
   533   c3    26  CLSB   C33    533    -0.324668     12.01000
   534   c3    26  CLSB   C34    534     0.160098     12.01000
   535   c3    26  CLSB   C35    535    -0.003373     12.01000
   536   h1    26  CLSB   H52    536     0.155773      1.00800
   537   h1    26  CLSB   H53    537    -0.028704      1.00800
   538   h1    26  CLSB   H54    538    -0.015081      1.00800
   539   h2    26  CLSB   H55    539     0.224924      1.00800
   540   h1    26  CLSB   H56    540    -0.020067      1.00800
   541   os    26  CLSB   O26    541    -0.426236     16.00000
   542   c3    26  CLSB   C36    542     0.237508     12.01000
   543   h1    26  CLSB   H57    543    -0.007249      1.00800
   544   h1    26  CLSB   H58    544    -0.007249      1.00800
   545   oh    26  CLSB   O27    545    -0.616120     16.00000
   546   ho    26  CLSB   H59    546     0.399525      1.00800
   547   oh    26  CLSB   O28    547    -0.702619     16.00000
   548   ho    26  CLSB   H60    548     0.389713      1.00800
   549   oh    26  CLSB   O29    549    -0.633195     16.00000
   550   ho    26  CLSB   H61    550     0.461444      1.00800
   551   os    26  CLSB   O30    551    -0.287228     16.00000
   552   c3    27  CLSA   C37    552     0.637636     12.01000
   553   c3    27  CLSA   C38    553     0.614409     12.01000
   554   c3    27  CLSA   C39    554    -0.171285     12.01000
   555   c3    27  CLSA   C40    555     0.057885     12.01000
   556   c3    27  CLSA   C41    556     0.025095     12.01000
   557   h2    27  CLSA   H62    557    -0.062662      1.00800
   558   h1    27  CLSA   H63    558     0.011734      1.00800
   559   h1    27  CLSA   H64    559     0.143671      1.00800
   560   h1    27  CLSA   H65    560     0.105109      1.00800
   561   h1    27  CLSA   H66    561     0.095129      1.00800
   562   oh    27  CLSA   O31    562    -0.719513     16.00000
   563   ho    27  CLSA   H67    563     0.456171      1.00800
   564   oh    27  CLSA   O32    564    -0.730793     16.00000
   565   ho    27  CLSA   H68    565     0.469856      1.00800
   566   os    27  CLSA   O33    566    -0.474002     16.00000
   567   c3    27  CLSA   C42    567     0.333344     12.01000
   568   h1    27  CLSA   H69    568    -0.008659      1.00800
   569   h1    27  CLSA   H70    569    -0.008659      1.00800
   570   oh    27  CLSA   O34    570    -0.714216     16.00000
   571   ho    27  CLSA   H71    571     0.419428      1.00800
   572   os    27  CLSA   O35    572    -0.479678     16.00000
   573   c3    28  CLSB   C43    573     0.445714     12.01000
   574   c3    28  CLSB   C44    574     0.597090     12.01000
   575   c3    28  CLSB   C45    575    -0.324668     12.01000
   576   c3    28  CLSB   C46    576     0.160098     12.01000
   577   c3    28  CLSB   C47    577    -0.003373     12.01000
   578   h1    28  CLSB   H72    578     0.155773      1.00800
   579   h1    28  CLSB   H73    579    -0.028704      1.00800
   580   h1    28  CLSB   H74    580    -0.015081      1.00800
   581   h2    28  CLSB   H75    581     0.224924      1.00800
   582   h1    28  CLSB   H76    582    -0.020067      1.00800
   583   os    28  CLSB   O36    583    -0.426236     16.00000
   584   c3    28  CLSB   C48    584     0.237508     12.01000
   585   h1    28  CLSB   H77    585    -0.007249      1.00800
   586   h1    28  CLSB   H78    586    -0.007249      1.00800
   587   oh    28  CLSB   O37    587    -0.616120     16.00000
   588   ho    28  CLSB   H79    588     0.399525      1.00800
   589   oh    28  CLSB   O38    589    -0.702619     16.00000
   590   ho    28  CLSB   H80    590     0.389713      1.00800
   591   oh    28  CLSB   O39    591    -0.633195     16.00000
   592   ho    28  CLSB   H81    592     0.461444      1.00800
   593   os    28  CLSB   O40    593    -0.287228     16.00000
   594   c3    29  CLSA   C49    594     0.637636     12.01000
   595   c3    29  CLSA   C50    595     0.614409     12.01000
   596   c3    29  CLSA   C51    596    -0.171285     12.01000
   597   c3    29  CLSA   C52    597     0.057885     12.01000
   598   c3    29  CLSA   C53    598     0.025095     12.01000
   599   h2    29  CLSA   H82    599    -0.062662      1.00800
   600   h1    29  CLSA   H83    600     0.011734      1.00800
   601   h1    29  CLSA   H84    601     0.143671      1.00800
   602   h1    29  CLSA   H85    602     0.105109      1.00800
   603   h1    29  CLSA   H86    603     0.095129      1.00800
   604   oh    29  CLSA   O41    604    -0.719513     16.00000
   605   ho    29  CLSA   H87    605     0.456171      1.00800
   606   oh    29  CLSA   O42    606    -0.730793     16.00000
   607   ho    29  CLSA   H88    607     0.469856      1.00800
   608   os    29  CLSA   O43    608    -0.474002     16.00000
   609   c3    29  CLSA   C54    609     0.333344     12.01000
   610   h1    29  CLSA   H89    610    -0.008659      1.00800
   611   h1    29  CLSA   H90    611    -0.008659      1.00800
   612   oh    29  CLSA   O44    612    -0.714216     16.00000
   613   ho    29  CLSA   H91    613     0.419428      1.00800
   614   os    29  CLSA   O45    614    -0.479678     16.00000
   615   c3    30  CLSB   C55    615     0.121602     12.01000
   616   c3    30  CLSB   C56    616     0.308032     12.01000
   617   c3    30  CLSB   C57    617     0.133071     12.01000
   618   c3    30  CLSB   C58    618    -0.022837     12.01000
   619   c3    30  CLSB   C59    619     0.295514     12.01000
   620   h1    30  CLSB   H92    620     0.088041      1.00800
   621   h1    30  CLSB   H93    621    -0.010095      1.00800
   622   h1    30  CLSB   H94    622     0.097376      1.00800
   623   h2    30  CLSB   H95    623     0.148218      1.00800
   624   h1    30  CLSB   H96    624     0.062262      1.00800
   625   os    30  CLSB   O46    625    -0.432195     16.00000
   626   c3    30  CLSB   C60    626     0.095527     12.01000
   627   h1    30  CLSB   H97    627     0.080630      1.00800
   628   h1    30  CLSB   H98    628     0.080630      1.00800
   629   oh    30  CLSB   O47    629    -0.623019     16.00000
   630   ho    30  CLSB   H99    630     0.399676      1.00800
   631   oh    30  CLSB   O48    631    -0.693951     16.00000
   632   ho    30  CLSB  H100    632     0.435324      1.00800
   633   oh    30  CLSB   O49    633    -0.785687     16.00000
   634   ho    30  CLSB  H101    634     0.500547      1.00800
   635   oh    30  CLSB   O50    635    -0.712798     16.00000
   636   ho    30  CLSB  H102    636     0.434132      1.00800
   637   hc    31  CLSA    H1    637     0.200362      1.00800
   638   c3    31  CLSA    C1    638    -0.585849     12.01000
   639   c3    31  CLSA    C2    639     0.673631     12.01000
   640   c3    31  CLSA    C3    640     0.487689     12.01000
   641   c3    31  CLSA    C4    641     0.404717     12.01000
   642   c3    31  CLSA    C5    642     0.164999     12.01000
   643   h2    31  CLSA    H2    643    -0.027274      1.00800
   644   hc    31  CLSA    H3    644     0.200358      1.00800
   645   h1    31  CLSA    H4    645     0.065963      1.00800
   646   h1    31  CLSA    H5    646     0.094726      1.00800
   647   h1    31  CLSA    H6    647     0.035151      1.00800
   648   oh    31  CLSA    O1    648    -0.664304     16.00000
   649   ho    31  CLSA    H7    649     0.431771      1.00800
   650   oh    31  CLSA    O2    650    -0.715181     16.00000
   651   ho    31  CLSA    H8    651     0.455262      1.00800
   652   os    31  CLSA    O3    652    -0.632999     16.00000
   653   c3    31  CLSA    C6    653     0.254848     12.01000
   654   h1    31  CLSA    H9    654     0.052609      1.00800
   655   h1    31  CLSA   H10    655     0.052609      1.00800
   656   oh    31  CLSA    O4    656    -0.703040     16.00000
   657   ho    31  CLSA   H11    657     0.431119      1.00800
   658   os    31  CLSA    O5    658    -0.677167     16.00000
   659   c3    32  CLSB    C7    659     0.445714     12.01000
   660   c3    32  CLSB    C8    660     0.597090     12.01000
   661   c3    32  CLSB    C9    661    -0.324668     12.01000
   662   c3    32  CLSB   C10    662     0.160098     12.01000
   663   c3    32  CLSB   C11    663    -0.003373     12.01000
   664   h1    32  CLSB   H12    664     0.155773      1.00800
   665   h1    32  CLSB   H13    665    -0.028704      1.00800
   666   h1    32  CLSB   H14    666    -0.015081      1.00800
   667   h2    32  CLSB   H15    667     0.224924      1.00800
   668   h1    32  CLSB   H16    668    -0.020067      1.00800
   669   os    32  CLSB    O6    669    -0.426236     16.00000
   670   c3    32  CLSB   C12    670     0.237508     12.01000
   671   h1    32  CLSB   H17    671    -0.007249      1.00800
   672   h1    32  CLSB   H18    672    -0.007249      1.00800
   673   oh    32  CLSB    O7    673    -0.616120     16.00000
   674   ho    32  CLSB   H19    674     0.399525      1.00800
   675   oh    32  CLSB    O8    675    -0.702619     16.00000
   676   ho    32  CLSB   H20    676     0.389713      1.00800
   677   oh    32  CLSB    O9    677    -0.633195     16.00000
   678   ho    32  CLSB   H21    678     0.461444      1.00800
   679   os    32  CLSB   O10    679    -0.287228     16.00000
   680   c3    33  CLSA   C13    680     0.637636     12.01000
   681   c3    33  CLSA   C14    681     0.614409     12.01000
   682   c3    33  CLSA   C15    682    -0.171285     12.01000
   683   c3    33  CLSA   C16    683     0.057885     12.01000
   684   c3    33  CLSA   C17    684     0.025095     12.01000
   685   h2    33  CLSA   H22    685    -0.062662      1.00800
   686   h1    33  CLSA   H23    686     0.011734      1.00800
   687   h1    33  CLSA   H24    687     0.143671      1.00800
   688   h1    33  CLSA   H25    688     0.105109      1.00800
   689   h1    33  CLSA   H26    689     0.095129      1.00800
   690   oh    33  CLSA   O11    690    -0.719513     16.00000
   691   ho    33  CLSA   H27    691     0.456171      1.00800
   692   oh    33  CLSA   O12    692    -0.730793     16.00000
   693   ho    33  CLSA   H28    693     0.469856      1.00800
   694   os    33  CLSA   O13    694    -0.474002     16.00000
   695   c3    33  CLSA   C18    695     0.333344     12.01000
   696   h1    33  CLSA   H29    696    -0.008659      1.00800
   697   h1    33  CLSA   H30    697    -0.008659      1.00800
   698   oh    33  CLSA   O14    698    -0.714216     16.00000
   699   ho    33  CLSA   H31    699     0.419428      1.00800
   700   os    33  CLSA   O15    700    -0.479678     16.00000
   701   c3    34  CLSB   C19    701     0.445714     12.01000
   702   c3    34  CLSB   C20    702     0.597090     12.01000
   703   c3    34  CLSB   C21    703    -0.324668     12.01000
   704   c3    34  CLSB   C22    704     0.160098     12.01000
   705   c3    34  CLSB   C23    705    -0.003373     12.01000
   706   h1    34  CLSB   H32    706     0.155773      1.00800
   707   h1    34  CLSB   H33    707    -0.028704      1.00800
   708   h1    34  CLSB   H34    708    -0.015081      1.00800
   709   h2    34  CLSB   H35    709     0.224924      1.00800
   710   h1    34  CLSB   H36    710    -0.020067      1.00800
   711   os    34  CLSB   O16    711    -0.426236     16.00000
   712   c3    34  CLSB   C24    712     0.237508     12.01000
   713   h1    34  CLSB   H37    713    -0.007249      1.00800
   714   h1    34  CLSB   H38    714    -0.007249      1.00800
   715   oh    34  CLSB   O17    715    -0.616120     16.00000
   716   ho    34  CLSB   H39    716     0.399525      1.00800
   717   oh    34  CLSB   O18    717    -0.702619     16.00000
   718   ho    34  CLSB   H40    718     0.389713      1.00800
   719   oh    34  CLSB   O19    719    -0.633195     16.00000
   720   ho    34  CLSB   H41    720     0.461444      1.00800
   721   os    34  CLSB   O20    721    -0.287228     16.00000
   722   c3    35  CLSA   C25    722     0.637636     12.01000
   723   c3    35  CLSA   C26    723     0.614409     12.01000
   724   c3    35  CLSA   C27    724    -0.171285     12.01000
   725   c3    35  CLSA   C28    725     0.057885     12.01000
   726   c3    35  CLSA   C29    726     0.025095     12.01000
   727   h2    35  CLSA   H42    727    -0.062662      1.00800
   728   h1    35  CLSA   H43    728     0.011734      1.00800
   729   h1    35  CLSA   H44    729     0.143671      1.00800
   730   h1    35  CLSA   H45    730     0.105109      1.00800
   731   h1    35  CLSA   H46    731     0.095129      1.00800
   732   oh    35  CLSA   O21    732    -0.719513     16.00000
   733   ho    35  CLSA   H47    733     0.456171      1.00800
   734   oh    35  CLSA   O22    734    -0.730793     16.00000
   735   ho    35  CLSA   H48    735     0.469856      1.00800
   736   os    35  CLSA   O23    736    -0.474002     16.00000
   737   c3    35  CLSA   C30    737     0.333344     12.01000
   738   h1    35  CLSA   H49    738    -0.008659      1.00800
   739   h1    35  CLSA   H50    739    -0.008659      1.00800
   740   oh    35  CLSA   O24    740    -0.714216     16.00000
   741   ho    35  CLSA   H51    741     0.419428      1.00800
   742   os    35  CLSA   O25    742    -0.479678     16.00000
   743   c3    36  CLSB   C31    743     0.445714     12.01000
   744   c3    36  CLSB   C32    744     0.597090     12.01000
   745   c3    36  CLSB   C33    745    -0.324668     12.01000
   746   c3    36  CLSB   C34    746     0.160098     12.01000
   747   c3    36  CLSB   C35    747    -0.003373     12.01000
   748   h1    36  CLSB   H52    748     0.155773      1.00800
   749   h1    36  CLSB   H53    749    -0.028704      1.00800
   750   h1    36  CLSB   H54    750    -0.015081      1.00800
   751   h2    36  CLSB   H55    751     0.224924      1.00800
   752   h1    36  CLSB   H56    752    -0.020067      1.00800
   753   os    36  CLSB   O26    753    -0.426236     16.00000
   754   c3    36  CLSB   C36    754     0.237508     12.01000
   755   h1    36  CLSB   H57    755    -0.007249      1.00800
   756   h1    36  CLSB   H58    756    -0.007249      1.00800
   757   oh    36  CLSB   O27    757    -0.616120     16.00000
   758   ho    36  CLSB   H59    758     0.399525      1.00800
   759   oh    36  CLSB   O28    759    -0.702619     16.00000
   760   ho    36  CLSB   H60    760     0.389713      1.00800
   761   oh    36  CLSB   O29    761    -0.633195     16.00000
   762   ho    36  CLSB   H61    762     0.461444      1.00800
   763   os    36  CLSB   O30    763    -0.287228     16.00000
   764   c3    37  CLSA   C37    764     0.637636     12.01000
   765   c3    37  CLSA   C38    765     0.614409     12.01000
   766   c3    37  CLSA   C39    766    -0.171285     12.01000
   767   c3    37  CLSA   C40    767     0.057885     12.01000
   768   c3    37  CLSA   C41    768     0.025095     12.01000
   769   h2    37  CLSA   H62    769    -0.062662      1.00800
   770   h1    37  CLSA   H63    770     0.011734      1.00800
   771   h1    37  CLSA   H64    771     0.143671      1.00800
   772   h1    37  CLSA   H65    772     0.105109      1.00800
   773   h1    37  CLSA   H66    773     0.095129      1.00800
   774   oh    37  CLSA   O31    774    -0.719513     16.00000
   775   ho    37  CLSA   H67    775     0.456171      1.00800
   776   oh    37  CLSA   O32    776    -0.730793     16.00000
   777   ho    37  CLSA   H68    777     0.469856      1.00800
   778   os    37  CLSA   O33    778    -0.474002     16.00000
   779   c3    37  CLSA   C42    779     0.333344     12.01000
   780   h1    37  CLSA   H69    780    -0.008659      1.00800
   781   h1    37  CLSA   H70    781    -0.008659      1.00800
   782   oh    37  CLSA   O34    782    -0.714216     16.00000
   783   ho    37  CLSA   H71    783     0.419428      1.00800
   784   os    37  CLSA   O35    784    -0.479678     16.00000
   785   c3    38  CLSB   C43    785     0.445714     12.01000
   786   c3    38  CLSB   C44    786     0.597090     12.01000
   787   c3    38  CLSB   C45    787    -0.324668     12.01000
   788   c3    38  CLSB   C46    788     0.160098     12.01000
   789   c3    38  CLSB   C47    789    -0.003373     12.01000
   790   h1    38  CLSB   H72    790     0.155773      1.00800
   791   h1    38  CLSB   H73    791    -0.028704      1.00800
   792   h1    38  CLSB   H74    792    -0.015081      1.00800
   793   h2    38  CLSB   H75    793     0.224924      1.00800
   794   h1    38  CLSB   H76    794    -0.020067      1.00800
   795   os    38  CLSB   O36    795    -0.426236     16.00000
   796   c3    38  CLSB   C48    796     0.237508     12.01000
   797   h1    38  CLSB   H77    797    -0.007249      1.00800
   798   h1    38  CLSB   H78    798    -0.007249      1.00800
   799   oh    38  CLSB   O37    799    -0.616120     16.00000
   800   ho    38  CLSB   H79    800     0.399525      1.00800
   801   oh    38  CLSB   O38    801    -0.702619     16.00000
   802   ho    38  CLSB   H80    802     0.389713      1.00800
   803   oh    38  CLSB   O39    803    -0.633195     16.00000
   804   ho    38  CLSB   H81    804     0.461444      1.00800
   805   os    38  CLSB   O40    805    -0.287228     16.00000
   806   c3    39  CLSA   C49    806     0.637636     12.01000
   807   c3    39  CLSA   C50    807     0.614409     12.01000
   808   c3    39  CLSA   C51    808    -0.171285     12.01000
   809   c3    39  CLSA   C52    809     0.057885     12.01000
   810   c3    39  CLSA   C53    810     0.025095     12.01000
   811   h2    39  CLSA   H82    811    -0.062662      1.00800
   812   h1    39  CLSA   H83    812     0.011734      1.00800
   813   h1    39  CLSA   H84    813     0.143671      1.00800
   814   h1    39  CLSA   H85    814     0.105109      1.00800
   815   h1    39  CLSA   H86    815     0.095129      1.00800
   816   oh    39  CLSA   O41    816    -0.719513     16.00000
   817   ho    39  CLSA   H87    817     0.456171      1.00800
   818   oh    39  CLSA   O42    818    -0.730793     16.00000
   819   ho    39  CLSA   H88    819     0.469856      1.00800
   820   os    39  CLSA   O43    820    -0.474002     16.00000
   821   c3    39  CLSA   C54    821     0.333344     12.01000
   822   h1    39  CLSA   H89    822    -0.008659      1.00800
   823   h1    39  CLSA   H90    823    -0.008659      1.00800
   824   oh    39  CLSA   O44    824    -0.714216     16.00000
   825   ho    39  CLSA   H91    825     0.419428      1.00800
   826   os    39  CLSA   O45    826    -0.479678     16.00000
   827   c3    40  CLSB   C55    827     0.121602     12.01000
   828   c3    40  CLSB   C56    828     0.308032     12.01000
   829   c3    40  CLSB   C57    829     0.133071     12.01000
   830   c3    40  CLSB   C58    830    -0.022837     12.01000
   831   c3    40  CLSB   C59    831     0.295514     12.01000
   832   h1    40  CLSB   H92    832     0.088041      1.00800
   833   h1    40  CLSB   H93    833    -0.010095      1.00800
   834   h1    40  CLSB   H94    834     0.097376      1.00800
   835   h2    40  CLSB   H95    835     0.148218      1.00800
   836   h1    40  CLSB   H96    836     0.062262      1.00800
   837   os    40  CLSB   O46    837    -0.432195     16.00000
   838   c3    40  CLSB   C60    838     0.095527     12.01000
   839   h1    40  CLSB   H97    839     0.080630      1.00800
   840   h1    40  CLSB   H98    840     0.080630      1.00800
   841   oh    40  CLSB   O47    841    -0.623019     16.00000
   842   ho    40  CLSB   H99    842     0.399676      1.00800
   843   oh    40  CLSB   O48    843    -0.693951     16.00000
   844   ho    40  CLSB  H100    844     0.435324      1.00800
   845   oh    40  CLSB   O49    845    -0.785687     16.00000
   846   ho    40  CLSB  H101    846     0.500547      1.00800
   847   oh    40  CLSB   O50    847    -0.712798     16.00000
   848   ho    40  CLSB  H102    848     0.434132      1.00800
   849   hc    41  CLSA    H1    849     0.200362      1.00800
   850   c3    41  CLSA    C1    850    -0.585849     12.01000
   851   c3    41  CLSA    C2    851     0.673631     12.01000
   852   c3    41  CLSA    C3    852     0.487689     12.01000
   853   c3    41  CLSA    C4    853     0.404717     12.01000
   854   c3    41  CLSA    C5    854     0.164999     12.01000
   855   h2    41  CLSA    H2    855    -0.027274      1.00800
   856   hc    41  CLSA    H3    856     0.200358      1.00800
   857   h1    41  CLSA    H4    857     0.065963      1.00800
   858   h1    41  CLSA    H5    858     0.094726      1.00800
   859   h1    41  CLSA    H6    859     0.035151      1.00800
   860   oh    41  CLSA    O1    860    -0.664304     16.00000
   861   ho    41  CLSA    H7    861     0.431771      1.00800
   862   oh    41  CLSA    O2    862    -0.715181     16.00000
   863   ho    41  CLSA    H8    863     0.455262      1.00800
   864   os    41  CLSA    O3    864    -0.632999     16.00000
   865   c3    41  CLSA    C6    865     0.254848     12.01000
   866   h1    41  CLSA    H9    866     0.052609      1.00800
   867   h1    41  CLSA   H10    867     0.052609      1.00800
   868   oh    41  CLSA    O4    868    -0.703040     16.00000
   869   ho    41  CLSA   H11    869     0.431119      1.00800
   870   os    41  CLSA    O5    870    -0.677167     16.00000
   871   c3    42  CLSB    C7    871     0.445714     12.01000
   872   c3    42  CLSB    C8    872     0.597090     12.01000
   873   c3    42  CLSB    C9    873    -0.324668     12.01000
   874   c3    42  CLSB   C10    874     0.160098     12.01000
   875   c3    42  CLSB   C11    875    -0.003373     12.01000
   876   h1    42  CLSB   H12    876     0.155773      1.00800
   877   h1    42  CLSB   H13    877    -0.028704      1.00800
   878   h1    42  CLSB   H14    878    -0.015081      1.00800
   879   h2    42  CLSB   H15    879     0.224924      1.00800
   880   h1    42  CLSB   H16    880    -0.020067      1.00800
   881   os    42  CLSB    O6    881    -0.426236     16.00000
   882   c3    42  CLSB   C12    882     0.237508     12.01000
   883   h1    42  CLSB   H17    883    -0.007249      1.00800
   884   h1    42  CLSB   H18    884    -0.007249      1.00800
   885   oh    42  CLSB    O7    885    -0.616120     16.00000
   886   ho    42  CLSB   H19    886     0.399525      1.00800
   887   oh    42  CLSB    O8    887    -0.702619     16.00000
   888   ho    42  CLSB   H20    888     0.389713      1.00800
   889   oh    42  CLSB    O9    889    -0.633195     16.00000
   890   ho    42  CLSB   H21    890     0.461444      1.00800
   891   os    42  CLSB   O10    891    -0.287228     16.00000
   892   c3    43  CLSA   C13    892     0.637636     12.01000
   893   c3    43  CLSA   C14    893     0.614409     12.01000
   894   c3    43  CLSA   C15    894    -0.171285     12.01000
   895   c3    43  CLSA   C16    895     0.057885     12.01000
   896   c3    43  CLSA   C17    896     0.025095     12.01000
   897   h2    43  CLSA   H22    897    -0.062662      1.00800
   898   h1    43  CLSA   H23    898     0.011734      1.00800
   899   h1    43  CLSA   H24    899     0.143671      1.00800
   900   h1    43  CLSA   H25    900     0.105109      1.00800
   901   h1    43  CLSA   H26    901     0.095129      1.00800
   902   oh    43  CLSA   O11    902    -0.719513     16.00000
   903   ho    43  CLSA   H27    903     0.456171      1.00800
   904   oh    43  CLSA   O12    904    -0.730793     16.00000
   905   ho    43  CLSA   H28    905     0.469856      1.00800
   906   os    43  CLSA   O13    906    -0.474002     16.00000
   907   c3    43  CLSA   C18    907     0.333344     12.01000
   908   h1    43  CLSA   H29    908    -0.008659      1.00800
   909   h1    43  CLSA   H30    909    -0.008659      1.00800
   910   oh    43  CLSA   O14    910    -0.714216     16.00000
   911   ho    43  CLSA   H31    911     0.419428      1.00800
   912   os    43  CLSA   O15    912    -0.479678     16.00000
   913   c3    44  CLSB   C19    913     0.445714     12.01000
   914   c3    44  CLSB   C20    914     0.597090     12.01000
   915   c3    44  CLSB   C21    915    -0.324668     12.01000
   916   c3    44  CLSB   C22    916     0.160098     12.01000
   917   c3    44  CLSB   C23    917    -0.003373     12.01000
   918   h1    44  CLSB   H32    918     0.155773      1.00800
   919   h1    44  CLSB   H33    919    -0.028704      1.00800
   920   h1    44  CLSB   H34    920    -0.015081      1.00800
   921   h2    44  CLSB   H35    921     0.224924      1.00800
   922   h1    44  CLSB   H36    922    -0.020067      1.00800
   923   os    44  CLSB   O16    923    -0.426236     16.00000
   924   c3    44  CLSB   C24    924     0.237508     12.01000
   925   h1    44  CLSB   H37    925    -0.007249      1.00800
   926   h1    44  CLSB   H38    926    -0.007249      1.00800
   927   oh    44  CLSB   O17    927    -0.616120     16.00000
   928   ho    44  CLSB   H39    928     0.399525      1.00800
   929   oh    44  CLSB   O18    929    -0.702619     16.00000
   930   ho    44  CLSB   H40    930     0.389713      1.00800
   931   oh    44  CLSB   O19    931    -0.633195     16.00000
   932   ho    44  CLSB   H41    932     0.461444      1.00800
   933   os    44  CLSB   O20    933    -0.287228     16.00000
   934   c3    45  CLSA   C25    934     0.637636     12.01000
   935   c3    45  CLSA   C26    935     0.614409     12.01000
   936   c3    45  CLSA   C27    936    -0.171285     12.01000
   937   c3    45  CLSA   C28    937     0.057885     12.01000
   938   c3    45  CLSA   C29    938     0.025095     12.01000
   939   h2    45  CLSA   H42    939    -0.062662      1.00800
   940   h1    45  CLSA   H43    940     0.011734      1.00800
   941   h1    45  CLSA   H44    941     0.143671      1.00800
   942   h1    45  CLSA   H45    942     0.105109      1.00800
   943   h1    45  CLSA   H46    943     0.095129      1.00800
   944   oh    45  CLSA   O21    944    -0.719513     16.00000
   945   ho    45  CLSA   H47    945     0.456171      1.00800
   946   oh    45  CLSA   O22    946    -0.730793     16.00000
   947   ho    45  CLSA   H48    947     0.469856      1.00800
   948   os    45  CLSA   O23    948    -0.474002     16.00000
   949   c3    45  CLSA   C30    949     0.333344     12.01000
   950   h1    45  CLSA   H49    950    -0.008659      1.00800
   951   h1    45  CLSA   H50    951    -0.008659      1.00800
   952   oh    45  CLSA   O24    952    -0.714216     16.00000
   953   ho    45  CLSA   H51    953     0.419428      1.00800
   954   os    45  CLSA   O25    954    -0.479678     16.00000
   955   c3    46  CLSB   C31    955     0.445714     12.01000
   956   c3    46  CLSB   C32    956     0.597090     12.01000
   957   c3    46  CLSB   C33    957    -0.324668     12.01000
   958   c3    46  CLSB   C34    958     0.160098     12.01000
   959   c3    46  CLSB   C35    959    -0.003373     12.01000
   960   h1    46  CLSB   H52    960     0.155773      1.00800
   961   h1    46  CLSB   H53    961    -0.028704      1.00800
   962   h1    46  CLSB   H54    962    -0.015081      1.00800
   963   h2    46  CLSB   H55    963     0.224924      1.00800
   964   h1    46  CLSB   H56    964    -0.020067      1.00800
   965   os    46  CLSB   O26    965    -0.426236     16.00000
   966   c3    46  CLSB   C36    966     0.237508     12.01000
   967   h1    46  CLSB   H57    967    -0.007249      1.00800
   968   h1    46  CLSB   H58    968    -0.007249      1.00800
   969   oh    46  CLSB   O27    969    -0.616120     16.00000
   970   ho    46  CLSB   H59    970     0.399525      1.00800
   971   oh    46  CLSB   O28    971    -0.702619     16.00000
   972   ho    46  CLSB   H60    972     0.389713      1.00800
   973   oh    46  CLSB   O29    973    -0.633195     16.00000
   974   ho    46  CLSB   H61    974     0.461444      1.00800
   975   os    46  CLSB   O30    975    -0.287228     16.00000
   976   c3    47  CLSA   C37    976     0.637636     12.01000
   977   c3    47  CLSA   C38    977     0.614409     12.01000
   978   c3    47  CLSA   C39    978    -0.171285     12.01000
   979   c3    47  CLSA   C40    979     0.057885     12.01000
   980   c3    47  CLSA   C41    980     0.025095     12.01000
   981   h2    47  CLSA   H62    981    -0.062662      1.00800
   982   h1    47  CLSA   H63    982     0.011734      1.00800
   983   h1    47  CLSA   H64    983     0.143671      1.00800
   984   h1    47  CLSA   H65    984     0.105109      1.00800
   985   h1    47  CLSA   H66    985     0.095129      1.00800
   986   oh    47  CLSA   O31    986    -0.719513     16.00000
   987   ho    47  CLSA   H67    987     0.456171      1.00800
   988   oh    47  CLSA   O32    988    -0.730793     16.00000
   989   ho    47  CLSA   H68    989     0.469856      1.00800
   990   os    47  CLSA   O33    990    -0.474002     16.00000
   991   c3    47  CLSA   C42    991     0.333344     12.01000
   992   h1    47  CLSA   H69    992    -0.008659      1.00800
   993   h1    47  CLSA   H70    993    -0.008659      1.00800
   994   oh    47  CLSA   O34    994    -0.714216     16.00000
   995   ho    47  CLSA   H71    995     0.419428      1.00800
   996   os    47  CLSA   O35    996    -0.479678     16.00000
   997   c3    48  CLSB   C43    997     0.445714     12.01000
   998   c3    48  CLSB   C44    998     0.597090     12.01000
   999   c3    48  CLSB   C45    999    -0.324668     12.01000
  1000   c3    48  CLSB   C46   1000     0.160098     12.01000
  1001   c3    48  CLSB   C47   1001    -0.003373     12.01000
  1002   h1    48  CLSB   H72   1002     0.155773      1.00800
  1003   h1    48  CLSB   H73   1003    -0.028704      1.00800
  1004   h1    48  CLSB   H74   1004    -0.015081      1.00800
  1005   h2    48  CLSB   H75   1005     0.224924      1.00800
  1006   h1    48  CLSB   H76   1006    -0.020067      1.00800
  1007   os    48  CLSB   O36   1007    -0.426236     16.00000
  1008   c3    48  CLSB   C48   1008     0.237508     12.01000
  1009   h1    48  CLSB   H77   1009    -0.007249      1.00800
  1010   h1    48  CLSB   H78   1010    -0.007249      1.00800
  1011   oh    48  CLSB   O37   1011    -0.616120     16.00000
  1012   ho    48  CLSB   H79   1012     0.399525      1.00800
  1013   oh    48  CLSB   O38   1013    -0.702619     16.00000
  1014   ho    48  CLSB   H80   1014     0.389713      1.00800
  1015   oh    48  CLSB   O39   1015    -0.633195     16.00000
  1016   ho    48  CLSB   H81   1016     0.461444      1.00800
  1017   os    48  CLSB   O40   1017    -0.287228     16.00000
  1018   c3    49  CLSA   C49   1018     0.637636     12.01000
  1019   c3    49  CLSA   C50   1019     0.614409     12.01000
  1020   c3    49  CLSA   C51   1020    -0.171285     12.01000
  1021   c3    49  CLSA   C52   1021     0.057885     12.01000
  1022   c3    49  CLSA   C53   1022     0.025095     12.01000
  1023   h2    49  CLSA   H82   1023    -0.062662      1.00800
  1024   h1    49  CLSA   H83   1024     0.011734      1.00800
  1025   h1    49  CLSA   H84   1025     0.143671      1.00800
  1026   h1    49  CLSA   H85   1026     0.105109      1.00800
  1027   h1    49  CLSA   H86   1027     0.095129      1.00800
  1028   oh    49  CLSA   O41   1028    -0.719513     16.00000
  1029   ho    49  CLSA   H87   1029     0.456171      1.00800
  1030   oh    49  CLSA   O42   1030    -0.730793     16.00000
  1031   ho    49  CLSA   H88   1031     0.469856      1.00800
  1032   os    49  CLSA   O43   1032    -0.474002     16.00000
  1033   c3    49  CLSA   C54   1033     0.333344     12.01000
  1034   h1    49  CLSA   H89   1034    -0.008659      1.00800
  1035   h1    49  CLSA   H90   1035    -0.008659      1.00800
  1036   oh    49  CLSA   O44   1036    -0.714216     16.00000
  1037   ho    49  CLSA   H91   1037     0.419428      1.00800
  1038   os    49  CLSA   O45   1038    -0.479678     16.00000
  1039   c3    50  CLSB   C55   1039     0.121602     12.01000
  1040   c3    50  CLSB   C56   1040     0.308032     12.01000
  1041   c3    50  CLSB   C57   1041     0.133071     12.01000
  1042   c3    50  CLSB   C58   1042    -0.022837     12.01000
  1043   c3    50  CLSB   C59   1043     0.295514     12.01000
  1044   h1    50  CLSB   H92   1044     0.088041      1.00800
  1045   h1    50  CLSB   H93   1045    -0.010095      1.00800
  1046   h1    50  CLSB   H94   1046     0.097376      1.00800
  1047   h2    50  CLSB   H95   1047     0.148218      1.00800
  1048   h1    50  CLSB   H96   1048     0.062262      1.00800
  1049   os    50  CLSB   O46   1049    -0.432195     16.00000
  1050   c3    50  CLSB   C60   1050     0.095527     12.01000
  1051   h1    50  CLSB   H97   1051     0.080630      1.00800
  1052   h1    50  CLSB   H98   1052     0.080630      1.00800
  1053   oh    50  CLSB   O47   1053    -0.623019     16.00000
  1054   ho    50  CLSB   H99   1054     0.399676      1.00800
  1055   oh    50  CLSB   O48   1055    -0.693951     16.00000
  1056   ho    50  CLSB  H100   1056     0.435324      1.00800
  1057   oh    50  CLSB   O49   1057    -0.785687     16.00000
  1058   ho    50  CLSB  H101   1058     0.500547      1.00800
  1059   oh    50  CLSB   O50   1059    -0.712798     16.00000
  1060   ho    50  CLSB  H102   1060     0.434132      1.00800
  1061   hc    51  CLSA    H1   1061     0.200362      1.00800
  1062   c3    51  CLSA    C1   1062    -0.585849     12.01000
  1063   c3    51  CLSA    C2   1063     0.673631     12.01000
  1064   c3    51  CLSA    C3   1064     0.487689     12.01000
  1065   c3    51  CLSA    C4   1065     0.404717     12.01000
  1066   c3    51  CLSA    C5   1066     0.164999     12.01000
  1067   h2    51  CLSA    H2   1067    -0.027274      1.00800
  1068   hc    51  CLSA    H3   1068     0.200358      1.00800
  1069   h1    51  CLSA    H4   1069     0.065963      1.00800
  1070   h1    51  CLSA    H5   1070     0.094726      1.00800
  1071   h1    51  CLSA    H6   1071     0.035151      1.00800
  1072   oh    51  CLSA    O1   1072    -0.664304     16.00000
  1073   ho    51  CLSA    H7   1073     0.431771      1.00800
  1074   oh    51  CLSA    O2   1074    -0.715181     16.00000
  1075   ho    51  CLSA    H8   1075     0.455262      1.00800
  1076   os    51  CLSA    O3   1076    -0.632999     16.00000
  1077   c3    51  CLSA    C6   1077     0.254848     12.01000
  1078   h1    51  CLSA    H9   1078     0.052609      1.00800
  1079   h1    51  CLSA   H10   1079     0.052609      1.00800
  1080   oh    51  CLSA    O4   1080    -0.703040     16.00000
  1081   ho    51  CLSA   H11   1081     0.431119      1.00800
  1082   os    51  CLSA    O5   1082    -0.677167     16.00000
  1083   c3    52  CLSB    C7   1083     0.445714     12.01000
  1084   c3    52  CLSB    C8   1084     0.597090     12.01000
  1085   c3    52  CLSB    C9   1085    -0.324668     12.01000
  1086   c3    52  CLSB   C10   1086     0.160098     12.01000
  1087   c3    52  CLSB   C11   1087    -0.003373     12.01000
  1088   h1    52  CLSB   H12   1088     0.155773      1.00800
  1089   h1    52  CLSB   H13   1089    -0.028704      1.00800
  1090   h1    52  CLSB   H14   1090    -0.015081      1.00800
  1091   h2    52  CLSB   H15   1091     0.224924      1.00800
  1092   h1    52  CLSB   H16   1092    -0.020067      1.00800
  1093   os    52  CLSB    O6   1093    -0.426236     16.00000
  1094   c3    52  CLSB   C12   1094     0.237508     12.01000
  1095   h1    52  CLSB   H17   1095    -0.007249      1.00800
  1096   h1    52  CLSB   H18   1096    -0.007249      1.00800
  1097   oh    52  CLSB    O7   1097    -0.616120     16.00000
  1098   ho    52  CLSB   H19   1098     0.399525      1.00800
  1099   oh    52  CLSB    O8   1099    -0.702619     16.00000
  1100   ho    52  CLSB   H20   1100     0.389713      1.00800
  1101   oh    52  CLSB    O9   1101    -0.633195     16.00000
  1102   ho    52  CLSB   H21   1102     0.461444      1.00800
  1103   os    52  CLSB   O10   1103    -0.287228     16.00000
  1104   c3    53  CLSA   C13   1104     0.637636     12.01000
  1105   c3    53  CLSA   C14   1105     0.614409     12.01000
  1106   c3    53  CLSA   C15   1106    -0.171285     12.01000
  1107   c3    53  CLSA   C16   1107     0.057885     12.01000
  1108   c3    53  CLSA   C17   1108     0.025095     12.01000
  1109   h2    53  CLSA   H22   1109    -0.062662      1.00800
  1110   h1    53  CLSA   H23   1110     0.011734      1.00800
  1111   h1    53  CLSA   H24   1111     0.143671      1.00800
  1112   h1    53  CLSA   H25   1112     0.105109      1.00800
  1113   h1    53  CLSA   H26   1113     0.095129      1.00800
  1114   oh    53  CLSA   O11   1114    -0.719513     16.00000
  1115   ho    53  CLSA   H27   1115     0.456171      1.00800
  1116   oh    53  CLSA   O12   1116    -0.730793     16.00000
  1117   ho    53  CLSA   H28   1117     0.469856      1.00800
  1118   os    53  CLSA   O13   1118    -0.474002     16.00000
  1119   c3    53  CLSA   C18   1119     0.333344     12.01000
  1120   h1    53  CLSA   H29   1120    -0.008659      1.00800
  1121   h1    53  CLSA   H30   1121    -0.008659      1.00800
  1122   oh    53  CLSA   O14   1122    -0.714216     16.00000
  1123   ho    53  CLSA   H31   1123     0.419428      1.00800
  1124   os    53  CLSA   O15   1124    -0.479678     16.00000
  1125   c3    54  CLSB   C19   1125     0.445714     12.01000
  1126   c3    54  CLSB   C20   1126     0.597090     12.01000
  1127   c3    54  CLSB   C21   1127    -0.324668     12.01000
  1128   c3    54  CLSB   C22   1128     0.160098     12.01000
  1129   c3    54  CLSB   C23   1129    -0.003373     12.01000
  1130   h1    54  CLSB   H32   1130     0.155773      1.00800
  1131   h1    54  CLSB   H33   1131    -0.028704      1.00800
  1132   h1    54  CLSB   H34   1132    -0.015081      1.00800
  1133   h2    54  CLSB   H35   1133     0.224924      1.00800
  1134   h1    54  CLSB   H36   1134    -0.020067      1.00800
  1135   os    54  CLSB   O16   1135    -0.426236     16.00000
  1136   c3    54  CLSB   C24   1136     0.237508     12.01000
  1137   h1    54  CLSB   H37   1137    -0.007249      1.00800
  1138   h1    54  CLSB   H38   1138    -0.007249      1.00800
  1139   oh    54  CLSB   O17   1139    -0.616120     16.00000
  1140   ho    54  CLSB   H39   1140     0.399525      1.00800
  1141   oh    54  CLSB   O18   1141    -0.702619     16.00000
  1142   ho    54  CLSB   H40   1142     0.389713      1.00800
  1143   oh    54  CLSB   O19   1143    -0.633195     16.00000
  1144   ho    54  CLSB   H41   1144     0.461444      1.00800
  1145   os    54  CLSB   O20   1145    -0.287228     16.00000
  1146   c3    55  CLSA   C25   1146     0.637636     12.01000
  1147   c3    55  CLSA   C26   1147     0.614409     12.01000
  1148   c3    55  CLSA   C27   1148    -0.171285     12.01000
  1149   c3    55  CLSA   C28   1149     0.057885     12.01000
  1150   c3    55  CLSA   C29   1150     0.025095     12.01000
  1151   h2    55  CLSA   H42   1151    -0.062662      1.00800
  1152   h1    55  CLSA   H43   1152     0.011734      1.00800
  1153   h1    55  CLSA   H44   1153     0.143671      1.00800
  1154   h1    55  CLSA   H45   1154     0.105109      1.00800
  1155   h1    55  CLSA   H46   1155     0.095129      1.00800
  1156   oh    55  CLSA   O21   1156    -0.719513     16.00000
  1157   ho    55  CLSA   H47   1157     0.456171      1.00800
  1158   oh    55  CLSA   O22   1158    -0.730793     16.00000
  1159   ho    55  CLSA   H48   1159     0.469856      1.00800
  1160   os    55  CLSA   O23   1160    -0.474002     16.00000
  1161   c3    55  CLSA   C30   1161     0.333344     12.01000
  1162   h1    55  CLSA   H49   1162    -0.008659      1.00800
  1163   h1    55  CLSA   H50   1163    -0.008659      1.00800
  1164   oh    55  CLSA   O24   1164    -0.714216     16.00000
  1165   ho    55  CLSA   H51   1165     0.419428      1.00800
  1166   os    55  CLSA   O25   1166    -0.479678     16.00000
  1167   c3    56  CLSB   C31   1167     0.445714     12.01000
  1168   c3    56  CLSB   C32   1168     0.597090     12.01000
  1169   c3    56  CLSB   C33   1169    -0.324668     12.01000
  1170   c3    56  CLSB   C34   1170     0.160098     12.01000
  1171   c3    56  CLSB   C35   1171    -0.003373     12.01000
  1172   h1    56  CLSB   H52   1172     0.155773      1.00800
  1173   h1    56  CLSB   H53   1173    -0.028704      1.00800
  1174   h1    56  CLSB   H54   1174    -0.015081      1.00800
  1175   h2    56  CLSB   H55   1175     0.224924      1.00800
  1176   h1    56  CLSB   H56   1176    -0.020067      1.00800
  1177   os    56  CLSB   O26   1177    -0.426236     16.00000
  1178   c3    56  CLSB   C36   1178     0.237508     12.01000
  1179   h1    56  CLSB   H57   1179    -0.007249      1.00800
  1180   h1    56  CLSB   H58   1180    -0.007249      1.00800
  1181   oh    56  CLSB   O27   1181    -0.616120     16.00000
  1182   ho    56  CLSB   H59   1182     0.399525      1.00800
  1183   oh    56  CLSB   O28   1183    -0.702619     16.00000
  1184   ho    56  CLSB   H60   1184     0.389713      1.00800
  1185   oh    56  CLSB   O29   1185    -0.633195     16.00000
  1186   ho    56  CLSB   H61   1186     0.461444      1.00800
  1187   os    56  CLSB   O30   1187    -0.287228     16.00000
  1188   c3    57  CLSA   C37   1188     0.637636     12.01000
  1189   c3    57  CLSA   C38   1189     0.614409     12.01000
  1190   c3    57  CLSA   C39   1190    -0.171285     12.01000
  1191   c3    57  CLSA   C40   1191     0.057885     12.01000
  1192   c3    57  CLSA   C41   1192     0.025095     12.01000
  1193   h2    57  CLSA   H62   1193    -0.062662      1.00800
  1194   h1    57  CLSA   H63   1194     0.011734      1.00800
  1195   h1    57  CLSA   H64   1195     0.143671      1.00800
  1196   h1    57  CLSA   H65   1196     0.105109      1.00800
  1197   h1    57  CLSA   H66   1197     0.095129      1.00800
  1198   oh    57  CLSA   O31   1198    -0.719513     16.00000
  1199   ho    57  CLSA   H67   1199     0.456171      1.00800
  1200   oh    57  CLSA   O32   1200    -0.730793     16.00000
  1201   ho    57  CLSA   H68   1201     0.469856      1.00800
  1202   os    57  CLSA   O33   1202    -0.474002     16.00000
  1203   c3    57  CLSA   C42   1203     0.333344     12.01000
  1204   h1    57  CLSA   H69   1204    -0.008659      1.00800
  1205   h1    57  CLSA   H70   1205    -0.008659      1.00800
  1206   oh    57  CLSA   O34   1206    -0.714216     16.00000
  1207   ho    57  CLSA   H71   1207     0.419428      1.00800
  1208   os    57  CLSA   O35   1208    -0.479678     16.00000
  1209   c3    58  CLSB   C43   1209     0.445714     12.01000
  1210   c3    58  CLSB   C44   1210     0.597090     12.01000
  1211   c3    58  CLSB   C45   1211    -0.324668     12.01000
  1212   c3    58  CLSB   C46   1212     0.160098     12.01000
  1213   c3    58  CLSB   C47   1213    -0.003373     12.01000
  1214   h1    58  CLSB   H72   1214     0.155773      1.00800
  1215   h1    58  CLSB   H73   1215    -0.028704      1.00800
  1216   h1    58  CLSB   H74   1216    -0.015081      1.00800
  1217   h2    58  CLSB   H75   1217     0.224924      1.00800
  1218   h1    58  CLSB   H76   1218    -0.020067      1.00800
  1219   os    58  CLSB   O36   1219    -0.426236     16.00000
  1220   c3    58  CLSB   C48   1220     0.237508     12.01000
  1221   h1    58  CLSB   H77   1221    -0.007249      1.00800
  1222   h1    58  CLSB   H78   1222    -0.007249      1.00800
  1223   oh    58  CLSB   O37   1223    -0.616120     16.00000
  1224   ho    58  CLSB   H79   1224     0.399525      1.00800
  1225   oh    58  CLSB   O38   1225    -0.702619     16.00000
  1226   ho    58  CLSB   H80   1226     0.389713      1.00800
  1227   oh    58  CLSB   O39   1227    -0.633195     16.00000
  1228   ho    58  CLSB   H81   1228     0.461444      1.00800
  1229   os    58  CLSB   O40   1229    -0.287228     16.00000
  1230   c3    59  CLSA   C49   1230     0.637636     12.01000
  1231   c3    59  CLSA   C50   1231     0.614409     12.01000
  1232   c3    59  CLSA   C51   1232    -0.171285     12.01000
  1233   c3    59  CLSA   C52   1233     0.057885     12.01000
  1234   c3    59  CLSA   C53   1234     0.025095     12.01000
  1235   h2    59  CLSA   H82   1235    -0.062662      1.00800
  1236   h1    59  CLSA   H83   1236     0.011734      1.00800
  1237   h1    59  CLSA   H84   1237     0.143671      1.00800
  1238   h1    59  CLSA   H85   1238     0.105109      1.00800
  1239   h1    59  CLSA   H86   1239     0.095129      1.00800
  1240   oh    59  CLSA   O41   1240    -0.719513     16.00000
  1241   ho    59  CLSA   H87   1241     0.456171      1.00800
  1242   oh    59  CLSA   O42   1242    -0.730793     16.00000
  1243   ho    59  CLSA   H88   1243     0.469856      1.00800
  1244   os    59  CLSA   O43   1244    -0.474002     16.00000
  1245   c3    59  CLSA   C54   1245     0.333344     12.01000
  1246   h1    59  CLSA   H89   1246    -0.008659      1.00800
  1247   h1    59  CLSA   H90   1247    -0.008659      1.00800
  1248   oh    59  CLSA   O44   1248    -0.714216     16.00000
  1249   ho    59  CLSA   H91   1249     0.419428      1.00800
  1250   os    59  CLSA   O45   1250    -0.479678     16.00000
  1251   c3    60  CLSB   C55   1251     0.121602     12.01000
  1252   c3    60  CLSB   C56   1252     0.308032     12.01000
  1253   c3    60  CLSB   C57   1253     0.133071     12.01000
  1254   c3    60  CLSB   C58   1254    -0.022837     12.01000
  1255   c3    60  CLSB   C59   1255     0.295514     12.01000
  1256   h1    60  CLSB   H92   1256     0.088041      1.00800
  1257   h1    60  CLSB   H93   1257    -0.010095      1.00800
  1258   h1    60  CLSB   H94   1258     0.097376      1.00800
  1259   h2    60  CLSB   H95   1259     0.148218      1.00800
  1260   h1    60  CLSB   H96   1260     0.062262      1.00800
  1261   os    60  CLSB   O46   1261    -0.432195     16.00000
  1262   c3    60  CLSB   C60   1262     0.095527     12.01000
  1263   h1    60  CLSB   H97   1263     0.080630      1.00800
  1264   h1    60  CLSB   H98   1264     0.080630      1.00800
  1265   oh    60  CLSB   O47   1265    -0.623019     16.00000
  1266   ho    60  CLSB   H99   1266     0.399676      1.00800
  1267   oh    60  CLSB   O48   1267    -0.693951     16.00000
  1268   ho    60  CLSB  H100   1268     0.435324      1.00800
  1269   oh    60  CLSB   O49   1269    -0.785687     16.00000
  1270   ho    60  CLSB  H101   1270     0.500547      1.00800
  1271   oh    60  CLSB   O50   1271    -0.712798     16.00000
  1272   ho    60  CLSB  H102   1272     0.434132      1.00800
  1273   hc    61  CLSA    H1   1273     0.200362      1.00800
  1274   c3    61  CLSA    C1   1274    -0.585849     12.01000
  1275   c3    61  CLSA    C2   1275     0.673631     12.01000
  1276   c3    61  CLSA    C3   1276     0.487689     12.01000
  1277   c3    61  CLSA    C4   1277     0.404717     12.01000
  1278   c3    61  CLSA    C5   1278     0.164999     12.01000
  1279   h2    61  CLSA    H2   1279    -0.027274      1.00800
  1280   hc    61  CLSA    H3   1280     0.200358      1.00800
  1281   h1    61  CLSA    H4   1281     0.065963      1.00800
  1282   h1    61  CLSA    H5   1282     0.094726      1.00800
  1283   h1    61  CLSA    H6   1283     0.035151      1.00800
  1284   oh    61  CLSA    O1   1284    -0.664304     16.00000
  1285   ho    61  CLSA    H7   1285     0.431771      1.00800
  1286   oh    61  CLSA    O2   1286    -0.715181     16.00000
  1287   ho    61  CLSA    H8   1287     0.455262      1.00800
  1288   os    61  CLSA    O3   1288    -0.632999     16.00000
  1289   c3    61  CLSA    C6   1289     0.254848     12.01000
  1290   h1    61  CLSA    H9   1290     0.052609      1.00800
  1291   h1    61  CLSA   H10   1291     0.052609      1.00800
  1292   oh    61  CLSA    O4   1292    -0.703040     16.00000
  1293   ho    61  CLSA   H11   1293     0.431119      1.00800
  1294   os    61  CLSA    O5   1294    -0.677167     16.00000
  1295   c3    62  CLSB    C7   1295     0.445714     12.01000
  1296   c3    62  CLSB    C8   1296     0.597090     12.01000
  1297   c3    62  CLSB    C9   1297    -0.324668     12.01000
  1298   c3    62  CLSB   C10   1298     0.160098     12.01000
  1299   c3    62  CLSB   C11   1299    -0.003373     12.01000
  1300   h1    62  CLSB   H12   1300     0.155773      1.00800
  1301   h1    62  CLSB   H13   1301    -0.028704      1.00800
  1302   h1    62  CLSB   H14   1302    -0.015081      1.00800
  1303   h2    62  CLSB   H15   1303     0.224924      1.00800
  1304   h1    62  CLSB   H16   1304    -0.020067      1.00800
  1305   os    62  CLSB    O6   1305    -0.426236     16.00000
  1306   c3    62  CLSB   C12   1306     0.237508     12.01000
  1307   h1    62  CLSB   H17   1307    -0.007249      1.00800
  1308   h1    62  CLSB   H18   1308    -0.007249      1.00800
  1309   oh    62  CLSB    O7   1309    -0.616120     16.00000
  1310   ho    62  CLSB   H19   1310     0.399525      1.00800
  1311   oh    62  CLSB    O8   1311    -0.702619     16.00000
  1312   ho    62  CLSB   H20   1312     0.389713      1.00800
  1313   oh    62  CLSB    O9   1313    -0.633195     16.00000
  1314   ho    62  CLSB   H21   1314     0.461444      1.00800
  1315   os    62  CLSB   O10   1315    -0.287228     16.00000
  1316   c3    63  CLSA   C13   1316     0.637636     12.01000
  1317   c3    63  CLSA   C14   1317     0.614409     12.01000
  1318   c3    63  CLSA   C15   1318    -0.171285     12.01000
  1319   c3    63  CLSA   C16   1319     0.057885     12.01000
  1320   c3    63  CLSA   C17   1320     0.025095     12.01000
  1321   h2    63  CLSA   H22   1321    -0.062662      1.00800
  1322   h1    63  CLSA   H23   1322     0.011734      1.00800
  1323   h1    63  CLSA   H24   1323     0.143671      1.00800
  1324   h1    63  CLSA   H25   1324     0.105109      1.00800
  1325   h1    63  CLSA   H26   1325     0.095129      1.00800
  1326   oh    63  CLSA   O11   1326    -0.719513     16.00000
  1327   ho    63  CLSA   H27   1327     0.456171      1.00800
  1328   oh    63  CLSA   O12   1328    -0.730793     16.00000
  1329   ho    63  CLSA   H28   1329     0.469856      1.00800
  1330   os    63  CLSA   O13   1330    -0.474002     16.00000
  1331   c3    63  CLSA   C18   1331     0.333344     12.01000
  1332   h1    63  CLSA   H29   1332    -0.008659      1.00800
  1333   h1    63  CLSA   H30   1333    -0.008659      1.00800
  1334   oh    63  CLSA   O14   1334    -0.714216     16.00000
  1335   ho    63  CLSA   H31   1335     0.419428      1.00800
  1336   os    63  CLSA   O15   1336    -0.479678     16.00000
  1337   c3    64  CLSB   C19   1337     0.445714     12.01000
  1338   c3    64  CLSB   C20   1338     0.597090     12.01000
  1339   c3    64  CLSB   C21   1339    -0.324668     12.01000
  1340   c3    64  CLSB   C22   1340     0.160098     12.01000
  1341   c3    64  CLSB   C23   1341    -0.003373     12.01000
  1342   h1    64  CLSB   H32   1342     0.155773      1.00800
  1343   h1    64  CLSB   H33   1343    -0.028704      1.00800
  1344   h1    64  CLSB   H34   1344    -0.015081      1.00800
  1345   h2    64  CLSB   H35   1345     0.224924      1.00800
  1346   h1    64  CLSB   H36   1346    -0.020067      1.00800
  1347   os    64  CLSB   O16   1347    -0.426236     16.00000
  1348   c3    64  CLSB   C24   1348     0.237508     12.01000
  1349   h1    64  CLSB   H37   1349    -0.007249      1.00800
  1350   h1    64  CLSB   H38   1350    -0.007249      1.00800
  1351   oh    64  CLSB   O17   1351    -0.616120     16.00000
  1352   ho    64  CLSB   H39   1352     0.399525      1.00800
  1353   oh    64  CLSB   O18   1353    -0.702619     16.00000
  1354   ho    64  CLSB   H40   1354     0.389713      1.00800
  1355   oh    64  CLSB   O19   1355    -0.633195     16.00000
  1356   ho    64  CLSB   H41   1356     0.461444      1.00800
  1357   os    64  CLSB   O20   1357    -0.287228     16.00000
  1358   c3    65  CLSA   C25   1358     0.637636     12.01000
  1359   c3    65  CLSA   C26   1359     0.614409     12.01000
  1360   c3    65  CLSA   C27   1360    -0.171285     12.01000
  1361   c3    65  CLSA   C28   1361     0.057885     12.01000
  1362   c3    65  CLSA   C29   1362     0.025095     12.01000
  1363   h2    65  CLSA   H42   1363    -0.062662      1.00800
  1364   h1    65  CLSA   H43   1364     0.011734      1.00800
  1365   h1    65  CLSA   H44   1365     0.143671      1.00800
  1366   h1    65  CLSA   H45   1366     0.105109      1.00800
  1367   h1    65  CLSA   H46   1367     0.095129      1.00800
  1368   oh    65  CLSA   O21   1368    -0.719513     16.00000
  1369   ho    65  CLSA   H47   1369     0.456171      1.00800
  1370   oh    65  CLSA   O22   1370    -0.730793     16.00000
  1371   ho    65  CLSA   H48   1371     0.469856      1.00800
  1372   os    65  CLSA   O23   1372    -0.474002     16.00000
  1373   c3    65  CLSA   C30   1373     0.333344     12.01000
  1374   h1    65  CLSA   H49   1374    -0.008659      1.00800
  1375   h1    65  CLSA   H50   1375    -0.008659      1.00800
  1376   oh    65  CLSA   O24   1376    -0.714216     16.00000
  1377   ho    65  CLSA   H51   1377     0.419428      1.00800
  1378   os    65  CLSA   O25   1378    -0.479678     16.00000
  1379   c3    66  CLSB   C31   1379     0.445714     12.01000
  1380   c3    66  CLSB   C32   1380     0.597090     12.01000
  1381   c3    66  CLSB   C33   1381    -0.324668     12.01000
  1382   c3    66  CLSB   C34   1382     0.160098     12.01000
  1383   c3    66  CLSB   C35   1383    -0.003373     12.01000
  1384   h1    66  CLSB   H52   1384     0.155773      1.00800
  1385   h1    66  CLSB   H53   1385    -0.028704      1.00800
  1386   h1    66  CLSB   H54   1386    -0.015081      1.00800
  1387   h2    66  CLSB   H55   1387     0.224924      1.00800
  1388   h1    66  CLSB   H56   1388    -0.020067      1.00800
  1389   os    66  CLSB   O26   1389    -0.426236     16.00000
  1390   c3    66  CLSB   C36   1390     0.237508     12.01000
  1391   h1    66  CLSB   H57   1391    -0.007249      1.00800
  1392   h1    66  CLSB   H58   1392    -0.007249      1.00800
  1393   oh    66  CLSB   O27   1393    -0.616120     16.00000
  1394   ho    66  CLSB   H59   1394     0.399525      1.00800
  1395   oh    66  CLSB   O28   1395    -0.702619     16.00000
  1396   ho    66  CLSB   H60   1396     0.389713      1.00800
  1397   oh    66  CLSB   O29   1397    -0.633195     16.00000
  1398   ho    66  CLSB   H61   1398     0.461444      1.00800
  1399   os    66  CLSB   O30   1399    -0.287228     16.00000
  1400   c3    67  CLSA   C37   1400     0.637636     12.01000
  1401   c3    67  CLSA   C38   1401     0.614409     12.01000
  1402   c3    67  CLSA   C39   1402    -0.171285     12.01000
  1403   c3    67  CLSA   C40   1403     0.057885     12.01000
  1404   c3    67  CLSA   C41   1404     0.025095     12.01000
  1405   h2    67  CLSA   H62   1405    -0.062662      1.00800
  1406   h1    67  CLSA   H63   1406     0.011734      1.00800
  1407   h1    67  CLSA   H64   1407     0.143671      1.00800
  1408   h1    67  CLSA   H65   1408     0.105109      1.00800
  1409   h1    67  CLSA   H66   1409     0.095129      1.00800
  1410   oh    67  CLSA   O31   1410    -0.719513     16.00000
  1411   ho    67  CLSA   H67   1411     0.456171      1.00800
  1412   oh    67  CLSA   O32   1412    -0.730793     16.00000
  1413   ho    67  CLSA   H68   1413     0.469856      1.00800
  1414   os    67  CLSA   O33   1414    -0.474002     16.00000
  1415   c3    67  CLSA   C42   1415     0.333344     12.01000
  1416   h1    67  CLSA   H69   1416    -0.008659      1.00800
  1417   h1    67  CLSA   H70   1417    -0.008659      1.00800
  1418   oh    67  CLSA   O34   1418    -0.714216     16.00000
  1419   ho    67  CLSA   H71   1419     0.419428      1.00800
  1420   os    67  CLSA   O35   1420    -0.479678     16.00000
  1421   c3    68  CLSB   C43   1421     0.445714     12.01000
  1422   c3    68  CLSB   C44   1422     0.597090     12.01000
  1423   c3    68  CLSB   C45   1423    -0.324668     12.01000
  1424   c3    68  CLSB   C46   1424     0.160098     12.01000
  1425   c3    68  CLSB   C47   1425    -0.003373     12.01000
  1426   h1    68  CLSB   H72   1426     0.155773      1.00800
  1427   h1    68  CLSB   H73   1427    -0.028704      1.00800
  1428   h1    68  CLSB   H74   1428    -0.015081      1.00800
  1429   h2    68  CLSB   H75   1429     0.224924      1.00800
  1430   h1    68  CLSB   H76   1430    -0.020067      1.00800
  1431   os    68  CLSB   O36   1431    -0.426236     16.00000
  1432   c3    68  CLSB   C48   1432     0.237508     12.01000
  1433   h1    68  CLSB   H77   1433    -0.007249      1.00800
  1434   h1    68  CLSB   H78   1434    -0.007249      1.00800
  1435   oh    68  CLSB   O37   1435    -0.616120     16.00000
  1436   ho    68  CLSB   H79   1436     0.399525      1.00800
  1437   oh    68  CLSB   O38   1437    -0.702619     16.00000
  1438   ho    68  CLSB   H80   1438     0.389713      1.00800
  1439   oh    68  CLSB   O39   1439    -0.633195     16.00000
  1440   ho    68  CLSB   H81   1440     0.461444      1.00800
  1441   os    68  CLSB   O40   1441    -0.287228     16.00000
  1442   c3    69  CLSA   C49   1442     0.637636     12.01000
  1443   c3    69  CLSA   C50   1443     0.614409     12.01000
  1444   c3    69  CLSA   C51   1444    -0.171285     12.01000
  1445   c3    69  CLSA   C52   1445     0.057885     12.01000
  1446   c3    69  CLSA   C53   1446     0.025095     12.01000
  1447   h2    69  CLSA   H82   1447    -0.062662      1.00800
  1448   h1    69  CLSA   H83   1448     0.011734      1.00800
  1449   h1    69  CLSA   H84   1449     0.143671      1.00800
  1450   h1    69  CLSA   H85   1450     0.105109      1.00800
  1451   h1    69  CLSA   H86   1451     0.095129      1.00800
  1452   oh    69  CLSA   O41   1452    -0.719513     16.00000
  1453   ho    69  CLSA   H87   1453     0.456171      1.00800
  1454   oh    69  CLSA   O42   1454    -0.730793     16.00000
  1455   ho    69  CLSA   H88   1455     0.469856      1.00800
  1456   os    69  CLSA   O43   1456    -0.474002     16.00000
  1457   c3    69  CLSA   C54   1457     0.333344     12.01000
  1458   h1    69  CLSA   H89   1458    -0.008659      1.00800
  1459   h1    69  CLSA   H90   1459    -0.008659      1.00800
  1460   oh    69  CLSA   O44   1460    -0.714216     16.00000
  1461   ho    69  CLSA   H91   1461     0.419428      1.00800
  1462   os    69  CLSA   O45   1462    -0.479678     16.00000
  1463   c3    70  CLSB   C55   1463     0.121602     12.01000
  1464   c3    70  CLSB   C56   1464     0.308032     12.01000
  1465   c3    70  CLSB   C57   1465     0.133071     12.01000
  1466   c3    70  CLSB   C58   1466    -0.022837     12.01000
  1467   c3    70  CLSB   C59   1467     0.295514     12.01000
  1468   h1    70  CLSB   H92   1468     0.088041      1.00800
  1469   h1    70  CLSB   H93   1469    -0.010095      1.00800
  1470   h1    70  CLSB   H94   1470     0.097376      1.00800
  1471   h2    70  CLSB   H95   1471     0.148218      1.00800
  1472   h1    70  CLSB   H96   1472     0.062262      1.00800
  1473   os    70  CLSB   O46   1473    -0.432195     16.00000
  1474   c3    70  CLSB   C60   1474     0.095527     12.01000
  1475   h1    70  CLSB   H97   1475     0.080630      1.00800
  1476   h1    70  CLSB   H98   1476     0.080630      1.00800
  1477   oh    70  CLSB   O47   1477    -0.623019     16.00000
  1478   ho    70  CLSB   H99   1478     0.399676      1.00800
  1479   oh    70  CLSB   O48   1479    -0.693951     16.00000
  1480   ho    70  CLSB  H100   1480     0.435324      1.00800
  1481   oh    70  CLSB   O49   1481    -0.785687     16.00000
  1482   ho    70  CLSB  H101   1482     0.500547      1.00800
  1483   oh    70  CLSB   O50   1483    -0.712798     16.00000
  1484   ho    70  CLSB  H102   1484     0.434132      1.00800
  1485   hc    71  CLSA    H1   1485     0.200362      1.00800
  1486   c3    71  CLSA    C1   1486    -0.585849     12.01000
  1487   c3    71  CLSA    C2   1487     0.673631     12.01000
  1488   c3    71  CLSA    C3   1488     0.487689     12.01000
  1489   c3    71  CLSA    C4   1489     0.404717     12.01000
  1490   c3    71  CLSA    C5   1490     0.164999     12.01000
  1491   h2    71  CLSA    H2   1491    -0.027274      1.00800
  1492   hc    71  CLSA    H3   1492     0.200358      1.00800
  1493   h1    71  CLSA    H4   1493     0.065963      1.00800
  1494   h1    71  CLSA    H5   1494     0.094726      1.00800
  1495   h1    71  CLSA    H6   1495     0.035151      1.00800
  1496   oh    71  CLSA    O1   1496    -0.664304     16.00000
  1497   ho    71  CLSA    H7   1497     0.431771      1.00800
  1498   oh    71  CLSA    O2   1498    -0.715181     16.00000
  1499   ho    71  CLSA    H8   1499     0.455262      1.00800
  1500   os    71  CLSA    O3   1500    -0.632999     16.00000
  1501   c3    71  CLSA    C6   1501     0.254848     12.01000
  1502   h1    71  CLSA    H9   1502     0.052609      1.00800
  1503   h1    71  CLSA   H10   1503     0.052609      1.00800
  1504   oh    71  CLSA    O4   1504    -0.703040     16.00000
  1505   ho    71  CLSA   H11   1505     0.431119      1.00800
  1506   os    71  CLSA    O5   1506    -0.677167     16.00000
  1507   c3    72  CLSB    C7   1507     0.445714     12.01000
  1508   c3    72  CLSB    C8   1508     0.597090     12.01000
  1509   c3    72  CLSB    C9   1509    -0.324668     12.01000
  1510   c3    72  CLSB   C10   1510     0.160098     12.01000
  1511   c3    72  CLSB   C11   1511    -0.003373     12.01000
  1512   h1    72  CLSB   H12   1512     0.155773      1.00800
  1513   h1    72  CLSB   H13   1513    -0.028704      1.00800
  1514   h1    72  CLSB   H14   1514    -0.015081      1.00800
  1515   h2    72  CLSB   H15   1515     0.224924      1.00800
  1516   h1    72  CLSB   H16   1516    -0.020067      1.00800
  1517   os    72  CLSB    O6   1517    -0.426236     16.00000
  1518   c3    72  CLSB   C12   1518     0.237508     12.01000
  1519   h1    72  CLSB   H17   1519    -0.007249      1.00800
  1520   h1    72  CLSB   H18   1520    -0.007249      1.00800
  1521   oh    72  CLSB    O7   1521    -0.616120     16.00000
  1522   ho    72  CLSB   H19   1522     0.399525      1.00800
  1523   oh    72  CLSB    O8   1523    -0.702619     16.00000
  1524   ho    72  CLSB   H20   1524     0.389713      1.00800
  1525   oh    72  CLSB    O9   1525    -0.633195     16.00000
  1526   ho    72  CLSB   H21   1526     0.461444      1.00800
  1527   os    72  CLSB   O10   1527    -0.287228     16.00000
  1528   c3    73  CLSA   C13   1528     0.637636     12.01000
  1529   c3    73  CLSA   C14   1529     0.614409     12.01000
  1530   c3    73  CLSA   C15   1530    -0.171285     12.01000
  1531   c3    73  CLSA   C16   1531     0.057885     12.01000
  1532   c3    73  CLSA   C17   1532     0.025095     12.01000
  1533   h2    73  CLSA   H22   1533    -0.062662      1.00800
  1534   h1    73  CLSA   H23   1534     0.011734      1.00800
  1535   h1    73  CLSA   H24   1535     0.143671      1.00800
  1536   h1    73  CLSA   H25   1536     0.105109      1.00800
  1537   h1    73  CLSA   H26   1537     0.095129      1.00800
  1538   oh    73  CLSA   O11   1538    -0.719513     16.00000
  1539   ho    73  CLSA   H27   1539     0.456171      1.00800
  1540   oh    73  CLSA   O12   1540    -0.730793     16.00000
  1541   ho    73  CLSA   H28   1541     0.469856      1.00800
  1542   os    73  CLSA   O13   1542    -0.474002     16.00000
  1543   c3    73  CLSA   C18   1543     0.333344     12.01000
  1544   h1    73  CLSA   H29   1544    -0.008659      1.00800
  1545   h1    73  CLSA   H30   1545    -0.008659      1.00800
  1546   oh    73  CLSA   O14   1546    -0.714216     16.00000
  1547   ho    73  CLSA   H31   1547     0.419428      1.00800
  1548   os    73  CLSA   O15   1548    -0.479678     16.00000
  1549   c3    74  CLSB   C19   1549     0.445714     12.01000
  1550   c3    74  CLSB   C20   1550     0.597090     12.01000
  1551   c3    74  CLSB   C21   1551    -0.324668     12.01000
  1552   c3    74  CLSB   C22   1552     0.160098     12.01000
  1553   c3    74  CLSB   C23   1553    -0.003373     12.01000
  1554   h1    74  CLSB   H32   1554     0.155773      1.00800
  1555   h1    74  CLSB   H33   1555    -0.028704      1.00800
  1556   h1    74  CLSB   H34   1556    -0.015081      1.00800
  1557   h2    74  CLSB   H35   1557     0.224924      1.00800
  1558   h1    74  CLSB   H36   1558    -0.020067      1.00800
  1559   os    74  CLSB   O16   1559    -0.426236     16.00000
  1560   c3    74  CLSB   C24   1560     0.237508     12.01000
  1561   h1    74  CLSB   H37   1561    -0.007249      1.00800
  1562   h1    74  CLSB   H38   1562    -0.007249      1.00800
  1563   oh    74  CLSB   O17   1563    -0.616120     16.00000
  1564   ho    74  CLSB   H39   1564     0.399525      1.00800
  1565   oh    74  CLSB   O18   1565    -0.702619     16.00000
  1566   ho    74  CLSB   H40   1566     0.389713      1.00800
  1567   oh    74  CLSB   O19   1567    -0.633195     16.00000
  1568   ho    74  CLSB   H41   1568     0.461444      1.00800
  1569   os    74  CLSB   O20   1569    -0.287228     16.00000
  1570   c3    75  CLSA   C25   1570     0.637636     12.01000
  1571   c3    75  CLSA   C26   1571     0.614409     12.01000
  1572   c3    75  CLSA   C27   1572    -0.171285     12.01000
  1573   c3    75  CLSA   C28   1573     0.057885     12.01000
  1574   c3    75  CLSA   C29   1574     0.025095     12.01000
  1575   h2    75  CLSA   H42   1575    -0.062662      1.00800
  1576   h1    75  CLSA   H43   1576     0.011734      1.00800
  1577   h1    75  CLSA   H44   1577     0.143671      1.00800
  1578   h1    75  CLSA   H45   1578     0.105109      1.00800
  1579   h1    75  CLSA   H46   1579     0.095129      1.00800
  1580   oh    75  CLSA   O21   1580    -0.719513     16.00000
  1581   ho    75  CLSA   H47   1581     0.456171      1.00800
  1582   oh    75  CLSA   O22   1582    -0.730793     16.00000
  1583   ho    75  CLSA   H48   1583     0.469856      1.00800
  1584   os    75  CLSA   O23   1584    -0.474002     16.00000
  1585   c3    75  CLSA   C30   1585     0.333344     12.01000
  1586   h1    75  CLSA   H49   1586    -0.008659      1.00800
  1587   h1    75  CLSA   H50   1587    -0.008659      1.00800
  1588   oh    75  CLSA   O24   1588    -0.714216     16.00000
  1589   ho    75  CLSA   H51   1589     0.419428      1.00800
  1590   os    75  CLSA   O25   1590    -0.479678     16.00000
  1591   c3    76  CLSB   C31   1591     0.445714     12.01000
  1592   c3    76  CLSB   C32   1592     0.597090     12.01000
  1593   c3    76  CLSB   C33   1593    -0.324668     12.01000
  1594   c3    76  CLSB   C34   1594     0.160098     12.01000
  1595   c3    76  CLSB   C35   1595    -0.003373     12.01000
  1596   h1    76  CLSB   H52   1596     0.155773      1.00800
  1597   h1    76  CLSB   H53   1597    -0.028704      1.00800
  1598   h1    76  CLSB   H54   1598    -0.015081      1.00800
  1599   h2    76  CLSB   H55   1599     0.224924      1.00800
  1600   h1    76  CLSB   H56   1600    -0.020067      1.00800
  1601   os    76  CLSB   O26   1601    -0.426236     16.00000
  1602   c3    76  CLSB   C36   1602     0.237508     12.01000
  1603   h1    76  CLSB   H57   1603    -0.007249      1.00800
  1604   h1    76  CLSB   H58   1604    -0.007249      1.00800
  1605   oh    76  CLSB   O27   1605    -0.616120     16.00000
  1606   ho    76  CLSB   H59   1606     0.399525      1.00800
  1607   oh    76  CLSB   O28   1607    -0.702619     16.00000
  1608   ho    76  CLSB   H60   1608     0.389713      1.00800
  1609   oh    76  CLSB   O29   1609    -0.633195     16.00000
  1610   ho    76  CLSB   H61   1610     0.461444      1.00800
  1611   os    76  CLSB   O30   1611    -0.287228     16.00000
  1612   c3    77  CLSA   C37   1612     0.637636     12.01000
  1613   c3    77  CLSA   C38   1613     0.614409     12.01000
  1614   c3    77  CLSA   C39   1614    -0.171285     12.01000
  1615   c3    77  CLSA   C40   1615     0.057885     12.01000
  1616   c3    77  CLSA   C41   1616     0.025095     12.01000
  1617   h2    77  CLSA   H62   1617    -0.062662      1.00800
  1618   h1    77  CLSA   H63   1618     0.011734      1.00800
  1619   h1    77  CLSA   H64   1619     0.143671      1.00800
  1620   h1    77  CLSA   H65   1620     0.105109      1.00800
  1621   h1    77  CLSA   H66   1621     0.095129      1.00800
  1622   oh    77  CLSA   O31   1622    -0.719513     16.00000
  1623   ho    77  CLSA   H67   1623     0.456171      1.00800
  1624   oh    77  CLSA   O32   1624    -0.730793     16.00000
  1625   ho    77  CLSA   H68   1625     0.469856      1.00800
  1626   os    77  CLSA   O33   1626    -0.474002     16.00000
  1627   c3    77  CLSA   C42   1627     0.333344     12.01000
  1628   h1    77  CLSA   H69   1628    -0.008659      1.00800
  1629   h1    77  CLSA   H70   1629    -0.008659      1.00800
  1630   oh    77  CLSA   O34   1630    -0.714216     16.00000
  1631   ho    77  CLSA   H71   1631     0.419428      1.00800
  1632   os    77  CLSA   O35   1632    -0.479678     16.00000
  1633   c3    78  CLSB   C43   1633     0.445714     12.01000
  1634   c3    78  CLSB   C44   1634     0.597090     12.01000
  1635   c3    78  CLSB   C45   1635    -0.324668     12.01000
  1636   c3    78  CLSB   C46   1636     0.160098     12.01000
  1637   c3    78  CLSB   C47   1637    -0.003373     12.01000
  1638   h1    78  CLSB   H72   1638     0.155773      1.00800
  1639   h1    78  CLSB   H73   1639    -0.028704      1.00800
  1640   h1    78  CLSB   H74   1640    -0.015081      1.00800
  1641   h2    78  CLSB   H75   1641     0.224924      1.00800
  1642   h1    78  CLSB   H76   1642    -0.020067      1.00800
  1643   os    78  CLSB   O36   1643    -0.426236     16.00000
  1644   c3    78  CLSB   C48   1644     0.237508     12.01000
  1645   h1    78  CLSB   H77   1645    -0.007249      1.00800
  1646   h1    78  CLSB   H78   1646    -0.007249      1.00800
  1647   oh    78  CLSB   O37   1647    -0.616120     16.00000
  1648   ho    78  CLSB   H79   1648     0.399525      1.00800
  1649   oh    78  CLSB   O38   1649    -0.702619     16.00000
  1650   ho    78  CLSB   H80   1650     0.389713      1.00800
  1651   oh    78  CLSB   O39   1651    -0.633195     16.00000
  1652   ho    78  CLSB   H81   1652     0.461444      1.00800
  1653   os    78  CLSB   O40   1653    -0.287228     16.00000
  1654   c3    79  CLSA   C49   1654     0.637636     12.01000
  1655   c3    79  CLSA   C50   1655     0.614409     12.01000
  1656   c3    79  CLSA   C51   1656    -0.171285     12.01000
  1657   c3    79  CLSA   C52   1657     0.057885     12.01000
  1658   c3    79  CLSA   C53   1658     0.025095     12.01000
  1659   h2    79  CLSA   H82   1659    -0.062662      1.00800
  1660   h1    79  CLSA   H83   1660     0.011734      1.00800
  1661   h1    79  CLSA   H84   1661     0.143671      1.00800
  1662   h1    79  CLSA   H85   1662     0.105109      1.00800
  1663   h1    79  CLSA   H86   1663     0.095129      1.00800
  1664   oh    79  CLSA   O41   1664    -0.719513     16.00000
  1665   ho    79  CLSA   H87   1665     0.456171      1.00800
  1666   oh    79  CLSA   O42   1666    -0.730793     16.00000
  1667   ho    79  CLSA   H88   1667     0.469856      1.00800
  1668   os    79  CLSA   O43   1668    -0.474002     16.00000
  1669   c3    79  CLSA   C54   1669     0.333344     12.01000
  1670   h1    79  CLSA   H89   1670    -0.008659      1.00800
  1671   h1    79  CLSA   H90   1671    -0.008659      1.00800
  1672   oh    79  CLSA   O44   1672    -0.714216     16.00000
  1673   ho    79  CLSA   H91   1673     0.419428      1.00800
  1674   os    79  CLSA   O45   1674    -0.479678     16.00000
  1675   c3    80  CLSB   C55   1675     0.121602     12.01000
  1676   c3    80  CLSB   C56   1676     0.308032     12.01000
  1677   c3    80  CLSB   C57   1677     0.133071     12.01000
  1678   c3    80  CLSB   C58   1678    -0.022837     12.01000
  1679   c3    80  CLSB   C59   1679     0.295514     12.01000
  1680   h1    80  CLSB   H92   1680     0.088041      1.00800
  1681   h1    80  CLSB   H93   1681    -0.010095      1.00800
  1682   h1    80  CLSB   H94   1682     0.097376      1.00800
  1683   h2    80  CLSB   H95   1683     0.148218      1.00800
  1684   h1    80  CLSB   H96   1684     0.062262      1.00800
  1685   os    80  CLSB   O46   1685    -0.432195     16.00000
  1686   c3    80  CLSB   C60   1686     0.095527     12.01000
  1687   h1    80  CLSB   H97   1687     0.080630      1.00800
  1688   h1    80  CLSB   H98   1688     0.080630      1.00800
  1689   oh    80  CLSB   O47   1689    -0.623019     16.00000
  1690   ho    80  CLSB   H99   1690     0.399676      1.00800
  1691   oh    80  CLSB   O48   1691    -0.693951     16.00000
  1692   ho    80  CLSB  H100   1692     0.435324      1.00800
  1693   oh    80  CLSB   O49   1693    -0.785687     16.00000
  1694   ho    80  CLSB  H101   1694     0.500547      1.00800
  1695   oh    80  CLSB   O50   1695    -0.712798     16.00000
  1696   ho    80  CLSB  H102   1696     0.434132      1.00800
  1697   hc    81  CLSA    H1   1697     0.200362      1.00800
  1698   c3    81  CLSA    C1   1698    -0.585849     12.01000
  1699   c3    81  CLSA    C2   1699     0.673631     12.01000
  1700   c3    81  CLSA    C3   1700     0.487689     12.01000
  1701   c3    81  CLSA    C4   1701     0.404717     12.01000
  1702   c3    81  CLSA    C5   1702     0.164999     12.01000
  1703   h2    81  CLSA    H2   1703    -0.027274      1.00800
  1704   hc    81  CLSA    H3   1704     0.200358      1.00800
  1705   h1    81  CLSA    H4   1705     0.065963      1.00800
  1706   h1    81  CLSA    H5   1706     0.094726      1.00800
  1707   h1    81  CLSA    H6   1707     0.035151      1.00800
  1708   oh    81  CLSA    O1   1708    -0.664304     16.00000
  1709   ho    81  CLSA    H7   1709     0.431771      1.00800
  1710   oh    81  CLSA    O2   1710    -0.715181     16.00000
  1711   ho    81  CLSA    H8   1711     0.455262      1.00800
  1712   os    81  CLSA    O3   1712    -0.632999     16.00000
  1713   c3    81  CLSA    C6   1713     0.254848     12.01000
  1714   h1    81  CLSA    H9   1714     0.052609      1.00800
  1715   h1    81  CLSA   H10   1715     0.052609      1.00800
  1716   oh    81  CLSA    O4   1716    -0.703040     16.00000
  1717   ho    81  CLSA   H11   1717     0.431119      1.00800
  1718   os    81  CLSA    O5   1718    -0.677167     16.00000
  1719   c3    82  CLSB    C7   1719     0.445714     12.01000
  1720   c3    82  CLSB    C8   1720     0.597090     12.01000
  1721   c3    82  CLSB    C9   1721    -0.324668     12.01000
  1722   c3    82  CLSB   C10   1722     0.160098     12.01000
  1723   c3    82  CLSB   C11   1723    -0.003373     12.01000
  1724   h1    82  CLSB   H12   1724     0.155773      1.00800
  1725   h1    82  CLSB   H13   1725    -0.028704      1.00800
  1726   h1    82  CLSB   H14   1726    -0.015081      1.00800
  1727   h2    82  CLSB   H15   1727     0.224924      1.00800
  1728   h1    82  CLSB   H16   1728    -0.020067      1.00800
  1729   os    82  CLSB    O6   1729    -0.426236     16.00000
  1730   c3    82  CLSB   C12   1730     0.237508     12.01000
  1731   h1    82  CLSB   H17   1731    -0.007249      1.00800
  1732   h1    82  CLSB   H18   1732    -0.007249      1.00800
  1733   oh    82  CLSB    O7   1733    -0.616120     16.00000
  1734   ho    82  CLSB   H19   1734     0.399525      1.00800
  1735   oh    82  CLSB    O8   1735    -0.702619     16.00000
  1736   ho    82  CLSB   H20   1736     0.389713      1.00800
  1737   oh    82  CLSB    O9   1737    -0.633195     16.00000
  1738   ho    82  CLSB   H21   1738     0.461444      1.00800
  1739   os    82  CLSB   O10   1739    -0.287228     16.00000
  1740   c3    83  CLSA   C13   1740     0.637636     12.01000
  1741   c3    83  CLSA   C14   1741     0.614409     12.01000
  1742   c3    83  CLSA   C15   1742    -0.171285     12.01000
  1743   c3    83  CLSA   C16   1743     0.057885     12.01000
  1744   c3    83  CLSA   C17   1744     0.025095     12.01000
  1745   h2    83  CLSA   H22   1745    -0.062662      1.00800
  1746   h1    83  CLSA   H23   1746     0.011734      1.00800
  1747   h1    83  CLSA   H24   1747     0.143671      1.00800
  1748   h1    83  CLSA   H25   1748     0.105109      1.00800
  1749   h1    83  CLSA   H26   1749     0.095129      1.00800
  1750   oh    83  CLSA   O11   1750    -0.719513     16.00000
  1751   ho    83  CLSA   H27   1751     0.456171      1.00800
  1752   oh    83  CLSA   O12   1752    -0.730793     16.00000
  1753   ho    83  CLSA   H28   1753     0.469856      1.00800
  1754   os    83  CLSA   O13   1754    -0.474002     16.00000
  1755   c3    83  CLSA   C18   1755     0.333344     12.01000
  1756   h1    83  CLSA   H29   1756    -0.008659      1.00800
  1757   h1    83  CLSA   H30   1757    -0.008659      1.00800
  1758   oh    83  CLSA   O14   1758    -0.714216     16.00000
  1759   ho    83  CLSA   H31   1759     0.419428      1.00800
  1760   os    83  CLSA   O15   1760    -0.479678     16.00000
  1761   c3    84  CLSB   C19   1761     0.445714     12.01000
  1762   c3    84  CLSB   C20   1762     0.597090     12.01000
  1763   c3    84  CLSB   C21   1763    -0.324668     12.01000
  1764   c3    84  CLSB   C22   1764     0.160098     12.01000
  1765   c3    84  CLSB   C23   1765    -0.003373     12.01000
  1766   h1    84  CLSB   H32   1766     0.155773      1.00800
  1767   h1    84  CLSB   H33   1767    -0.028704      1.00800
  1768   h1    84  CLSB   H34   1768    -0.015081      1.00800
  1769   h2    84  CLSB   H35   1769     0.224924      1.00800
  1770   h1    84  CLSB   H36   1770    -0.020067      1.00800
  1771   os    84  CLSB   O16   1771    -0.426236     16.00000
  1772   c3    84  CLSB   C24   1772     0.237508     12.01000
  1773   h1    84  CLSB   H37   1773    -0.007249      1.00800
  1774   h1    84  CLSB   H38   1774    -0.007249      1.00800
  1775   oh    84  CLSB   O17   1775    -0.616120     16.00000
  1776   ho    84  CLSB   H39   1776     0.399525      1.00800
  1777   oh    84  CLSB   O18   1777    -0.702619     16.00000
  1778   ho    84  CLSB   H40   1778     0.389713      1.00800
  1779   oh    84  CLSB   O19   1779    -0.633195     16.00000
  1780   ho    84  CLSB   H41   1780     0.461444      1.00800
  1781   os    84  CLSB   O20   1781    -0.287228     16.00000
  1782   c3    85  CLSA   C25   1782     0.637636     12.01000
  1783   c3    85  CLSA   C26   1783     0.614409     12.01000
  1784   c3    85  CLSA   C27   1784    -0.171285     12.01000
  1785   c3    85  CLSA   C28   1785     0.057885     12.01000
  1786   c3    85  CLSA   C29   1786     0.025095     12.01000
  1787   h2    85  CLSA   H42   1787    -0.062662      1.00800
  1788   h1    85  CLSA   H43   1788     0.011734      1.00800
  1789   h1    85  CLSA   H44   1789     0.143671      1.00800
  1790   h1    85  CLSA   H45   1790     0.105109      1.00800
  1791   h1    85  CLSA   H46   1791     0.095129      1.00800
  1792   oh    85  CLSA   O21   1792    -0.719513     16.00000
  1793   ho    85  CLSA   H47   1793     0.456171      1.00800
  1794   oh    85  CLSA   O22   1794    -0.730793     16.00000
  1795   ho    85  CLSA   H48   1795     0.469856      1.00800
  1796   os    85  CLSA   O23   1796    -0.474002     16.00000
  1797   c3    85  CLSA   C30   1797     0.333344     12.01000
  1798   h1    85  CLSA   H49   1798    -0.008659      1.00800
  1799   h1    85  CLSA   H50   1799    -0.008659      1.00800
  1800   oh    85  CLSA   O24   1800    -0.714216     16.00000
  1801   ho    85  CLSA   H51   1801     0.419428      1.00800
  1802   os    85  CLSA   O25   1802    -0.479678     16.00000
  1803   c3    86  CLSB   C31   1803     0.445714     12.01000
  1804   c3    86  CLSB   C32   1804     0.597090     12.01000
  1805   c3    86  CLSB   C33   1805    -0.324668     12.01000
  1806   c3    86  CLSB   C34   1806     0.160098     12.01000
  1807   c3    86  CLSB   C35   1807    -0.003373     12.01000
  1808   h1    86  CLSB   H52   1808     0.155773      1.00800
  1809   h1    86  CLSB   H53   1809    -0.028704      1.00800
  1810   h1    86  CLSB   H54   1810    -0.015081      1.00800
  1811   h2    86  CLSB   H55   1811     0.224924      1.00800
  1812   h1    86  CLSB   H56   1812    -0.020067      1.00800
  1813   os    86  CLSB   O26   1813    -0.426236     16.00000
  1814   c3    86  CLSB   C36   1814     0.237508     12.01000
  1815   h1    86  CLSB   H57   1815    -0.007249      1.00800
  1816   h1    86  CLSB   H58   1816    -0.007249      1.00800
  1817   oh    86  CLSB   O27   1817    -0.616120     16.00000
  1818   ho    86  CLSB   H59   1818     0.399525      1.00800
  1819   oh    86  CLSB   O28   1819    -0.702619     16.00000
  1820   ho    86  CLSB   H60   1820     0.389713      1.00800
  1821   oh    86  CLSB   O29   1821    -0.633195     16.00000
  1822   ho    86  CLSB   H61   1822     0.461444      1.00800
  1823   os    86  CLSB   O30   1823    -0.287228     16.00000
  1824   c3    87  CLSA   C37   1824     0.637636     12.01000
  1825   c3    87  CLSA   C38   1825     0.614409     12.01000
  1826   c3    87  CLSA   C39   1826    -0.171285     12.01000
  1827   c3    87  CLSA   C40   1827     0.057885     12.01000
  1828   c3    87  CLSA   C41   1828     0.025095     12.01000
  1829   h2    87  CLSA   H62   1829    -0.062662      1.00800
  1830   h1    87  CLSA   H63   1830     0.011734      1.00800
  1831   h1    87  CLSA   H64   1831     0.143671      1.00800
  1832   h1    87  CLSA   H65   1832     0.105109      1.00800
  1833   h1    87  CLSA   H66   1833     0.095129      1.00800
  1834   oh    87  CLSA   O31   1834    -0.719513     16.00000
  1835   ho    87  CLSA   H67   1835     0.456171      1.00800
  1836   oh    87  CLSA   O32   1836    -0.730793     16.00000
  1837   ho    87  CLSA   H68   1837     0.469856      1.00800
  1838   os    87  CLSA   O33   1838    -0.474002     16.00000
  1839   c3    87  CLSA   C42   1839     0.333344     12.01000
  1840   h1    87  CLSA   H69   1840    -0.008659      1.00800
  1841   h1    87  CLSA   H70   1841    -0.008659      1.00800
  1842   oh    87  CLSA   O34   1842    -0.714216     16.00000
  1843   ho    87  CLSA   H71   1843     0.419428      1.00800
  1844   os    87  CLSA   O35   1844    -0.479678     16.00000
  1845   c3    88  CLSB   C43   1845     0.445714     12.01000
  1846   c3    88  CLSB   C44   1846     0.597090     12.01000
  1847   c3    88  CLSB   C45   1847    -0.324668     12.01000
  1848   c3    88  CLSB   C46   1848     0.160098     12.01000
  1849   c3    88  CLSB   C47   1849    -0.003373     12.01000
  1850   h1    88  CLSB   H72   1850     0.155773      1.00800
  1851   h1    88  CLSB   H73   1851    -0.028704      1.00800
  1852   h1    88  CLSB   H74   1852    -0.015081      1.00800
  1853   h2    88  CLSB   H75   1853     0.224924      1.00800
  1854   h1    88  CLSB   H76   1854    -0.020067      1.00800
  1855   os    88  CLSB   O36   1855    -0.426236     16.00000
  1856   c3    88  CLSB   C48   1856     0.237508     12.01000
  1857   h1    88  CLSB   H77   1857    -0.007249      1.00800
  1858   h1    88  CLSB   H78   1858    -0.007249      1.00800
  1859   oh    88  CLSB   O37   1859    -0.616120     16.00000
  1860   ho    88  CLSB   H79   1860     0.399525      1.00800
  1861   oh    88  CLSB   O38   1861    -0.702619     16.00000
  1862   ho    88  CLSB   H80   1862     0.389713      1.00800
  1863   oh    88  CLSB   O39   1863    -0.633195     16.00000
  1864   ho    88  CLSB   H81   1864     0.461444      1.00800
  1865   os    88  CLSB   O40   1865    -0.287228     16.00000
  1866   c3    89  CLSA   C49   1866     0.637636     12.01000
  1867   c3    89  CLSA   C50   1867     0.614409     12.01000
  1868   c3    89  CLSA   C51   1868    -0.171285     12.01000
  1869   c3    89  CLSA   C52   1869     0.057885     12.01000
  1870   c3    89  CLSA   C53   1870     0.025095     12.01000
  1871   h2    89  CLSA   H82   1871    -0.062662      1.00800
  1872   h1    89  CLSA   H83   1872     0.011734      1.00800
  1873   h1    89  CLSA   H84   1873     0.143671      1.00800
  1874   h1    89  CLSA   H85   1874     0.105109      1.00800
  1875   h1    89  CLSA   H86   1875     0.095129      1.00800
  1876   oh    89  CLSA   O41   1876    -0.719513     16.00000
  1877   ho    89  CLSA   H87   1877     0.456171      1.00800
  1878   oh    89  CLSA   O42   1878    -0.730793     16.00000
  1879   ho    89  CLSA   H88   1879     0.469856      1.00800
  1880   os    89  CLSA   O43   1880    -0.474002     16.00000
  1881   c3    89  CLSA   C54   1881     0.333344     12.01000
  1882   h1    89  CLSA   H89   1882    -0.008659      1.00800
  1883   h1    89  CLSA   H90   1883    -0.008659      1.00800
  1884   oh    89  CLSA   O44   1884    -0.714216     16.00000
  1885   ho    89  CLSA   H91   1885     0.419428      1.00800
  1886   os    89  CLSA   O45   1886    -0.479678     16.00000
  1887   c3    90  CLSB   C55   1887     0.121602     12.01000
  1888   c3    90  CLSB   C56   1888     0.308032     12.01000
  1889   c3    90  CLSB   C57   1889     0.133071     12.01000
  1890   c3    90  CLSB   C58   1890    -0.022837     12.01000
  1891   c3    90  CLSB   C59   1891     0.295514     12.01000
  1892   h1    90  CLSB   H92   1892     0.088041      1.00800
  1893   h1    90  CLSB   H93   1893    -0.010095      1.00800
  1894   h1    90  CLSB   H94   1894     0.097376      1.00800
  1895   h2    90  CLSB   H95   1895     0.148218      1.00800
  1896   h1    90  CLSB   H96   1896     0.062262      1.00800
  1897   os    90  CLSB   O46   1897    -0.432195     16.00000
  1898   c3    90  CLSB   C60   1898     0.095527     12.01000
  1899   h1    90  CLSB   H97   1899     0.080630      1.00800
  1900   h1    90  CLSB   H98   1900     0.080630      1.00800
  1901   oh    90  CLSB   O47   1901    -0.623019     16.00000
  1902   ho    90  CLSB   H99   1902     0.399676      1.00800
  1903   oh    90  CLSB   O48   1903    -0.693951     16.00000
  1904   ho    90  CLSB  H100   1904     0.435324      1.00800
  1905   oh    90  CLSB   O49   1905    -0.785687     16.00000
  1906   ho    90  CLSB  H101   1906     0.500547      1.00800
  1907   oh    90  CLSB   O50   1907    -0.712798     16.00000
  1908   ho    90  CLSB  H102   1908     0.434132      1.00800
  1909   hc    91  CLSA    H1   1909     0.200362      1.00800
  1910   c3    91  CLSA    C1   1910    -0.585849     12.01000
  1911   c3    91  CLSA    C2   1911     0.673631     12.01000
  1912   c3    91  CLSA    C3   1912     0.487689     12.01000
  1913   c3    91  CLSA    C4   1913     0.404717     12.01000
  1914   c3    91  CLSA    C5   1914     0.164999     12.01000
  1915   h2    91  CLSA    H2   1915    -0.027274      1.00800
  1916   hc    91  CLSA    H3   1916     0.200358      1.00800
  1917   h1    91  CLSA    H4   1917     0.065963      1.00800
  1918   h1    91  CLSA    H5   1918     0.094726      1.00800
  1919   h1    91  CLSA    H6   1919     0.035151      1.00800
  1920   oh    91  CLSA    O1   1920    -0.664304     16.00000
  1921   ho    91  CLSA    H7   1921     0.431771      1.00800
  1922   oh    91  CLSA    O2   1922    -0.715181     16.00000
  1923   ho    91  CLSA    H8   1923     0.455262      1.00800
  1924   os    91  CLSA    O3   1924    -0.632999     16.00000
  1925   c3    91  CLSA    C6   1925     0.254848     12.01000
  1926   h1    91  CLSA    H9   1926     0.052609      1.00800
  1927   h1    91  CLSA   H10   1927     0.052609      1.00800
  1928   oh    91  CLSA    O4   1928    -0.703040     16.00000
  1929   ho    91  CLSA   H11   1929     0.431119      1.00800
  1930   os    91  CLSA    O5   1930    -0.677167     16.00000
  1931   c3    92  CLSB    C7   1931     0.445714     12.01000
  1932   c3    92  CLSB    C8   1932     0.597090     12.01000
  1933   c3    92  CLSB    C9   1933    -0.324668     12.01000
  1934   c3    92  CLSB   C10   1934     0.160098     12.01000
  1935   c3    92  CLSB   C11   1935    -0.003373     12.01000
  1936   h1    92  CLSB   H12   1936     0.155773      1.00800
  1937   h1    92  CLSB   H13   1937    -0.028704      1.00800
  1938   h1    92  CLSB   H14   1938    -0.015081      1.00800
  1939   h2    92  CLSB   H15   1939     0.224924      1.00800
  1940   h1    92  CLSB   H16   1940    -0.020067      1.00800
  1941   os    92  CLSB    O6   1941    -0.426236     16.00000
  1942   c3    92  CLSB   C12   1942     0.237508     12.01000
  1943   h1    92  CLSB   H17   1943    -0.007249      1.00800
  1944   h1    92  CLSB   H18   1944    -0.007249      1.00800
  1945   oh    92  CLSB    O7   1945    -0.616120     16.00000
  1946   ho    92  CLSB   H19   1946     0.399525      1.00800
  1947   oh    92  CLSB    O8   1947    -0.702619     16.00000
  1948   ho    92  CLSB   H20   1948     0.389713      1.00800
  1949   oh    92  CLSB    O9   1949    -0.633195     16.00000
  1950   ho    92  CLSB   H21   1950     0.461444      1.00800
  1951   os    92  CLSB   O10   1951    -0.287228     16.00000
  1952   c3    93  CLSA   C13   1952     0.637636     12.01000
  1953   c3    93  CLSA   C14   1953     0.614409     12.01000
  1954   c3    93  CLSA   C15   1954    -0.171285     12.01000
  1955   c3    93  CLSA   C16   1955     0.057885     12.01000
  1956   c3    93  CLSA   C17   1956     0.025095     12.01000
  1957   h2    93  CLSA   H22   1957    -0.062662      1.00800
  1958   h1    93  CLSA   H23   1958     0.011734      1.00800
  1959   h1    93  CLSA   H24   1959     0.143671      1.00800
  1960   h1    93  CLSA   H25   1960     0.105109      1.00800
  1961   h1    93  CLSA   H26   1961     0.095129      1.00800
  1962   oh    93  CLSA   O11   1962    -0.719513     16.00000
  1963   ho    93  CLSA   H27   1963     0.456171      1.00800
  1964   oh    93  CLSA   O12   1964    -0.730793     16.00000
  1965   ho    93  CLSA   H28   1965     0.469856      1.00800
  1966   os    93  CLSA   O13   1966    -0.474002     16.00000
  1967   c3    93  CLSA   C18   1967     0.333344     12.01000
  1968   h1    93  CLSA   H29   1968    -0.008659      1.00800
  1969   h1    93  CLSA   H30   1969    -0.008659      1.00800
  1970   oh    93  CLSA   O14   1970    -0.714216     16.00000
  1971   ho    93  CLSA   H31   1971     0.419428      1.00800
  1972   os    93  CLSA   O15   1972    -0.479678     16.00000
  1973   c3    94  CLSB   C19   1973     0.445714     12.01000
  1974   c3    94  CLSB   C20   1974     0.597090     12.01000
  1975   c3    94  CLSB   C21   1975    -0.324668     12.01000
  1976   c3    94  CLSB   C22   1976     0.160098     12.01000
  1977   c3    94  CLSB   C23   1977    -0.003373     12.01000
  1978   h1    94  CLSB   H32   1978     0.155773      1.00800
  1979   h1    94  CLSB   H33   1979    -0.028704      1.00800
  1980   h1    94  CLSB   H34   1980    -0.015081      1.00800
  1981   h2    94  CLSB   H35   1981     0.224924      1.00800
  1982   h1    94  CLSB   H36   1982    -0.020067      1.00800
  1983   os    94  CLSB   O16   1983    -0.426236     16.00000
  1984   c3    94  CLSB   C24   1984     0.237508     12.01000
  1985   h1    94  CLSB   H37   1985    -0.007249      1.00800
  1986   h1    94  CLSB   H38   1986    -0.007249      1.00800
  1987   oh    94  CLSB   O17   1987    -0.616120     16.00000
  1988   ho    94  CLSB   H39   1988     0.399525      1.00800
  1989   oh    94  CLSB   O18   1989    -0.702619     16.00000
  1990   ho    94  CLSB   H40   1990     0.389713      1.00800
  1991   oh    94  CLSB   O19   1991    -0.633195     16.00000
  1992   ho    94  CLSB   H41   1992     0.461444      1.00800
  1993   os    94  CLSB   O20   1993    -0.287228     16.00000
  1994   c3    95  CLSA   C25   1994     0.637636     12.01000
  1995   c3    95  CLSA   C26   1995     0.614409     12.01000
  1996   c3    95  CLSA   C27   1996    -0.171285     12.01000
  1997   c3    95  CLSA   C28   1997     0.057885     12.01000
  1998   c3    95  CLSA   C29   1998     0.025095     12.01000
  1999   h2    95  CLSA   H42   1999    -0.062662      1.00800
  2000   h1    95  CLSA   H43   2000     0.011734      1.00800
  2001   h1    95  CLSA   H44   2001     0.143671      1.00800
  2002   h1    95  CLSA   H45   2002     0.105109      1.00800
  2003   h1    95  CLSA   H46   2003     0.095129      1.00800
  2004   oh    95  CLSA   O21   2004    -0.719513     16.00000
  2005   ho    95  CLSA   H47   2005     0.456171      1.00800
  2006   oh    95  CLSA   O22   2006    -0.730793     16.00000
  2007   ho    95  CLSA   H48   2007     0.469856      1.00800
  2008   os    95  CLSA   O23   2008    -0.474002     16.00000
  2009   c3    95  CLSA   C30   2009     0.333344     12.01000
  2010   h1    95  CLSA   H49   2010    -0.008659      1.00800
  2011   h1    95  CLSA   H50   2011    -0.008659      1.00800
  2012   oh    95  CLSA   O24   2012    -0.714216     16.00000
  2013   ho    95  CLSA   H51   2013     0.419428      1.00800
  2014   os    95  CLSA   O25   2014    -0.479678     16.00000
  2015   c3    96  CLSB   C31   2015     0.445714     12.01000
  2016   c3    96  CLSB   C32   2016     0.597090     12.01000
  2017   c3    96  CLSB   C33   2017    -0.324668     12.01000
  2018   c3    96  CLSB   C34   2018     0.160098     12.01000
  2019   c3    96  CLSB   C35   2019    -0.003373     12.01000
  2020   h1    96  CLSB   H52   2020     0.155773      1.00800
  2021   h1    96  CLSB   H53   2021    -0.028704      1.00800
  2022   h1    96  CLSB   H54   2022    -0.015081      1.00800
  2023   h2    96  CLSB   H55   2023     0.224924      1.00800
  2024   h1    96  CLSB   H56   2024    -0.020067      1.00800
  2025   os    96  CLSB   O26   2025    -0.426236     16.00000
  2026   c3    96  CLSB   C36   2026     0.237508     12.01000
  2027   h1    96  CLSB   H57   2027    -0.007249      1.00800
  2028   h1    96  CLSB   H58   2028    -0.007249      1.00800
  2029   oh    96  CLSB   O27   2029    -0.616120     16.00000
  2030   ho    96  CLSB   H59   2030     0.399525      1.00800
  2031   oh    96  CLSB   O28   2031    -0.702619     16.00000
  2032   ho    96  CLSB   H60   2032     0.389713      1.00800
  2033   oh    96  CLSB   O29   2033    -0.633195     16.00000
  2034   ho    96  CLSB   H61   2034     0.461444      1.00800
  2035   os    96  CLSB   O30   2035    -0.287228     16.00000
  2036   c3    97  CLSA   C37   2036     0.637636     12.01000
  2037   c3    97  CLSA   C38   2037     0.614409     12.01000
  2038   c3    97  CLSA   C39   2038    -0.171285     12.01000
  2039   c3    97  CLSA   C40   2039     0.057885     12.01000
  2040   c3    97  CLSA   C41   2040     0.025095     12.01000
  2041   h2    97  CLSA   H62   2041    -0.062662      1.00800
  2042   h1    97  CLSA   H63   2042     0.011734      1.00800
  2043   h1    97  CLSA   H64   2043     0.143671      1.00800
  2044   h1    97  CLSA   H65   2044     0.105109      1.00800
  2045   h1    97  CLSA   H66   2045     0.095129      1.00800
  2046   oh    97  CLSA   O31   2046    -0.719513     16.00000
  2047   ho    97  CLSA   H67   2047     0.456171      1.00800
  2048   oh    97  CLSA   O32   2048    -0.730793     16.00000
  2049   ho    97  CLSA   H68   2049     0.469856      1.00800
  2050   os    97  CLSA   O33   2050    -0.474002     16.00000
  2051   c3    97  CLSA   C42   2051     0.333344     12.01000
  2052   h1    97  CLSA   H69   2052    -0.008659      1.00800
  2053   h1    97  CLSA   H70   2053    -0.008659      1.00800
  2054   oh    97  CLSA   O34   2054    -0.714216     16.00000
  2055   ho    97  CLSA   H71   2055     0.419428      1.00800
  2056   os    97  CLSA   O35   2056    -0.479678     16.00000
  2057   c3    98  CLSB   C43   2057     0.445714     12.01000
  2058   c3    98  CLSB   C44   2058     0.597090     12.01000
  2059   c3    98  CLSB   C45   2059    -0.324668     12.01000
  2060   c3    98  CLSB   C46   2060     0.160098     12.01000
  2061   c3    98  CLSB   C47   2061    -0.003373     12.01000
  2062   h1    98  CLSB   H72   2062     0.155773      1.00800
  2063   h1    98  CLSB   H73   2063    -0.028704      1.00800
  2064   h1    98  CLSB   H74   2064    -0.015081      1.00800
  2065   h2    98  CLSB   H75   2065     0.224924      1.00800
  2066   h1    98  CLSB   H76   2066    -0.020067      1.00800
  2067   os    98  CLSB   O36   2067    -0.426236     16.00000
  2068   c3    98  CLSB   C48   2068     0.237508     12.01000
  2069   h1    98  CLSB   H77   2069    -0.007249      1.00800
  2070   h1    98  CLSB   H78   2070    -0.007249      1.00800
  2071   oh    98  CLSB   O37   2071    -0.616120     16.00000
  2072   ho    98  CLSB   H79   2072     0.399525      1.00800
  2073   oh    98  CLSB   O38   2073    -0.702619     16.00000
  2074   ho    98  CLSB   H80   2074     0.389713      1.00800
  2075   oh    98  CLSB   O39   2075    -0.633195     16.00000
  2076   ho    98  CLSB   H81   2076     0.461444      1.00800
  2077   os    98  CLSB   O40   2077    -0.287228     16.00000
  2078   c3    99  CLSA   C49   2078     0.637636     12.01000
  2079   c3    99  CLSA   C50   2079     0.614409     12.01000
  2080   c3    99  CLSA   C51   2080    -0.171285     12.01000
  2081   c3    99  CLSA   C52   2081     0.057885     12.01000
  2082   c3    99  CLSA   C53   2082     0.025095     12.01000
  2083   h2    99  CLSA   H82   2083    -0.062662      1.00800
  2084   h1    99  CLSA   H83   2084     0.011734      1.00800
  2085   h1    99  CLSA   H84   2085     0.143671      1.00800
  2086   h1    99  CLSA   H85   2086     0.105109      1.00800
  2087   h1    99  CLSA   H86   2087     0.095129      1.00800
  2088   oh    99  CLSA   O41   2088    -0.719513     16.00000
  2089   ho    99  CLSA   H87   2089     0.456171      1.00800
  2090   oh    99  CLSA   O42   2090    -0.730793     16.00000
  2091   ho    99  CLSA   H88   2091     0.469856      1.00800
  2092   os    99  CLSA   O43   2092    -0.474002     16.00000
  2093   c3    99  CLSA   C54   2093     0.333344     12.01000
  2094   h1    99  CLSA   H89   2094    -0.008659      1.00800
  2095   h1    99  CLSA   H90   2095    -0.008659      1.00800
  2096   oh    99  CLSA   O44   2096    -0.714216     16.00000
  2097   ho    99  CLSA   H91   2097     0.419428      1.00800
  2098   os    99  CLSA   O45   2098    -0.479678     16.00000
  2099   c3   100  CLSB   C55   2099     0.121602     12.01000
  2100   c3   100  CLSB   C56   2100     0.308032     12.01000
  2101   c3   100  CLSB   C57   2101     0.133071     12.01000
  2102   c3   100  CLSB   C58   2102    -0.022837     12.01000
  2103   c3   100  CLSB   C59   2103     0.295514     12.01000
  2104   h1   100  CLSB   H92   2104     0.088041      1.00800
  2105   h1   100  CLSB   H93   2105    -0.010095      1.00800
  2106   h1   100  CLSB   H94   2106     0.097376      1.00800
  2107   h2   100  CLSB   H95   2107     0.148218      1.00800
  2108   h1   100  CLSB   H96   2108     0.062262      1.00800
  2109   os   100  CLSB   O46   2109    -0.432195     16.00000
  2110   c3   100  CLSB   C60   2110     0.095527     12.01000
  2111   h1   100  CLSB   H97   2111     0.080630      1.00800
  2112   h1   100  CLSB   H98   2112     0.080630      1.00800
  2113   oh   100  CLSB   O47   2113    -0.623019     16.00000
  2114   ho   100  CLSB   H99   2114     0.399676      1.00800
  2115   oh   100  CLSB   O48   2115    -0.693951     16.00000
  2116   ho   100  CLSB  H100   2116     0.435324      1.00800
  2117   oh   100  CLSB   O49   2117    -0.785687     16.00000
  2118   ho   100  CLSB  H101   2118     0.500547      1.00800
  2119   oh   100  CLSB   O50   2119    -0.712798     16.00000
  2120   ho   100  CLSB  H102   2120     0.434132      1.00800

[ bonds ]
;   ai     aj funct   r             k

     1     2   1   1.0970e-01   3.1455e+05 ;     H1 - C1
     1     9   1   0.1090e+00   3.1455e+05 ;     H1 - H4
     2     4   1   1.5380e-01   1.9456e+05 ;     C1 - C3
     2     5   1   1.5380e-01   1.9456e+05 ;     C1 - C4
     2     8   1   1.0970e-01   3.1455e+05 ;     C1 - H3
     3     6   1   1.5380e-01   1.9456e+05 ;     C2 - C5
     3     7   1   1.0960e-01   3.1572e+05 ;     C2 - H2
     3    16   1   1.4320e-01   2.3832e+05 ;     C2 - O3
     3    22   1   1.4320e-01   2.3832e+05 ;     C2 - O5
     4    11   1   1.0970e-01   3.1455e+05 ;     C3 - H6
     4    16   1   1.4320e-01   2.3832e+05 ;     C3 - O3
     4    17   1   1.5380e-01   1.9456e+05 ;     C3 - C6
     5     6   1   1.5380e-01   1.9456e+05 ;     C4 - C5
     5     9   1   1.0970e-01   3.1455e+05 ;     C4 - H4
     5    12   1   1.4230e-01   2.4552e+05 ;     C4 - O1
     6    10   1   1.0970e-01   3.1455e+05 ;     C5 - H5
     6    14   1   1.4230e-01   2.4552e+05 ;     C5 - O2
    12    13   1   9.7300e-02   4.7154e+05 ;     O1 - H7
    14    15   1   9.7300e-02   4.7154e+05 ;     O2 - H8
    17    18   1   1.0970e-01   3.1455e+05 ;     C6 - H9
    17    19   1   1.0970e-01   3.1455e+05 ;     C6 - H10
    17    20   1   1.4230e-01   2.4552e+05 ;     C6 - O4
    20    21   1   9.7300e-02   4.7154e+05 ;     O4 - H11
    22    23   1   1.4320e-01   2.3832e+05 ;     O5 - C7
    23    25   1   1.5380e-01   1.9456e+05 ;     C7 - C9
    23    26   1   1.5380e-01   1.9456e+05 ;     C7 - C10
    23    32   1   1.0970e-01   3.1455e+05 ;     C7 - H16
    24    25   1   1.5380e-01   1.9456e+05 ;     C8 - C9
    24    27   1   1.5380e-01   1.9456e+05 ;     C8 - C11
    24    29   1   1.0970e-01   3.1455e+05 ;     C8 - H13
    24    39   1   1.4230e-01   2.4552e+05 ;     C8 - O8
    25    28   1   1.0970e-01   3.1455e+05 ;     C9 - H12
    25    41   1   1.4230e-01   2.4552e+05 ;     C9 - O9
    26    30   1   1.0970e-01   3.1455e+05 ;    C10 - H14
    26    33   1   1.4320e-01   2.3832e+05 ;    C10 - O6
    26    34   1   1.5380e-01   1.9456e+05 ;    C10 - C12
    27    31   1   1.0960e-01   3.1572e+05 ;    C11 - H15
    27    33   1   1.4320e-01   2.3832e+05 ;    C11 - O6
    27    43   1   1.4320e-01   2.3832e+05 ;    C11 - O10
    34    35   1   1.0970e-01   3.1455e+05 ;    C12 - H17
    34    36   1   1.0970e-01   3.1455e+05 ;    C12 - H18
    34    37   1   1.4230e-01   2.4552e+05 ;    C12 - O7
    37    38   1   9.7300e-02   4.7154e+05 ;     O7 - H19
    39    40   1   9.7300e-02   4.7154e+05 ;     O8 - H20
    41    42   1   9.7300e-02   4.7154e+05 ;     O9 - H21
    43    44   1   1.4320e-01   2.3832e+05 ;    O10 - C13
    44    46   1   1.5380e-01   1.9456e+05 ;    C13 - C15
    44    47   1   1.5380e-01   1.9456e+05 ;    C13 - C16
    44    50   1   1.0970e-01   3.1455e+05 ;    C13 - H23
    45    48   1   1.5380e-01   1.9456e+05 ;    C14 - C17
    45    49   1   1.0960e-01   3.1572e+05 ;    C14 - H22
    45    58   1   1.4320e-01   2.3832e+05 ;    C14 - O13
    45    64   1   1.4320e-01   2.3832e+05 ;    C14 - O15
    46    53   1   1.0970e-01   3.1455e+05 ;    C15 - H26
    46    58   1   1.4320e-01   2.3832e+05 ;    C15 - O13
    46    59   1   1.5380e-01   1.9456e+05 ;    C15 - C18
    47    48   1   1.5380e-01   1.9456e+05 ;    C16 - C17
    47    51   1   1.0970e-01   3.1455e+05 ;    C16 - H24
    47    54   1   1.4230e-01   2.4552e+05 ;    C16 - O11
    48    52   1   1.0970e-01   3.1455e+05 ;    C17 - H25
    48    56   1   1.4230e-01   2.4552e+05 ;    C17 - O12
    54    55   1   9.7300e-02   4.7154e+05 ;    O11 - H27
    56    57   1   9.7300e-02   4.7154e+05 ;    O12 - H28
    59    60   1   1.0970e-01   3.1455e+05 ;    C18 - H29
    59    61   1   1.0970e-01   3.1455e+05 ;    C18 - H30
    59    62   1   1.4230e-01   2.4552e+05 ;    C18 - O14
    62    63   1   9.7300e-02   4.7154e+05 ;    O14 - H31
    64    65   1   1.4320e-01   2.3832e+05 ;    O15 - C19
    65    67   1   1.5380e-01   1.9456e+05 ;    C19 - C21
    65    68   1   1.5380e-01   1.9456e+05 ;    C19 - C22
    65    74   1   1.0970e-01   3.1455e+05 ;    C19 - H36
    66    67   1   1.5380e-01   1.9456e+05 ;    C20 - C21
    66    69   1   1.5380e-01   1.9456e+05 ;    C20 - C23
    66    71   1   1.0970e-01   3.1455e+05 ;    C20 - H33
    66    81   1   1.4230e-01   2.4552e+05 ;    C20 - O18
    67    70   1   1.0970e-01   3.1455e+05 ;    C21 - H32
    67    83   1   1.4230e-01   2.4552e+05 ;    C21 - O19
    68    72   1   1.0970e-01   3.1455e+05 ;    C22 - H34
    68    75   1   1.4320e-01   2.3832e+05 ;    C22 - O16
    68    76   1   1.5380e-01   1.9456e+05 ;    C22 - C24
    69    73   1   1.0960e-01   3.1572e+05 ;    C23 - H35
    69    75   1   1.4320e-01   2.3832e+05 ;    C23 - O16
    69    85   1   1.4320e-01   2.3832e+05 ;    C23 - O20
    76    77   1   1.0970e-01   3.1455e+05 ;    C24 - H37
    76    78   1   1.0970e-01   3.1455e+05 ;    C24 - H38
    76    79   1   1.4230e-01   2.4552e+05 ;    C24 - O17
    79    80   1   9.7300e-02   4.7154e+05 ;    O17 - H39
    81    82   1   9.7300e-02   4.7154e+05 ;    O18 - H40
    83    84   1   9.7300e-02   4.7154e+05 ;    O19 - H41
    85    86   1   1.4320e-01   2.3832e+05 ;    O20 - C25
    86    88   1   1.5380e-01   1.9456e+05 ;    C25 - C27
    86    89   1   1.5380e-01   1.9456e+05 ;    C25 - C28
    86    92   1   1.0970e-01   3.1455e+05 ;    C25 - H43
    87    90   1   1.5380e-01   1.9456e+05 ;    C26 - C29
    87    91   1   1.0960e-01   3.1572e+05 ;    C26 - H42
    87   100   1   1.4320e-01   2.3832e+05 ;    C26 - O23
    87   106   1   1.4320e-01   2.3832e+05 ;    C26 - O25
    88    95   1   1.0970e-01   3.1455e+05 ;    C27 - H46
    88   100   1   1.4320e-01   2.3832e+05 ;    C27 - O23
    88   101   1   1.5380e-01   1.9456e+05 ;    C27 - C30
    89    90   1   1.5380e-01   1.9456e+05 ;    C28 - C29
    89    93   1   1.0970e-01   3.1455e+05 ;    C28 - H44
    89    96   1   1.4230e-01   2.4552e+05 ;    C28 - O21
    90    94   1   1.0970e-01   3.1455e+05 ;    C29 - H45
    90    98   1   1.4230e-01   2.4552e+05 ;    C29 - O22
    96    97   1   9.7300e-02   4.7154e+05 ;    O21 - H47
    98    99   1   9.7300e-02   4.7154e+05 ;    O22 - H48
   101   102   1   1.0970e-01   3.1455e+05 ;    C30 - H49
   101   103   1   1.0970e-01   3.1455e+05 ;    C30 - H50
   101   104   1   1.4230e-01   2.4552e+05 ;    C30 - O24
   104   105   1   9.7300e-02   4.7154e+05 ;    O24 - H51
   106   107   1   1.4320e-01   2.3832e+05 ;    O25 - C31
   107   109   1   1.5380e-01   1.9456e+05 ;    C31 - C33
   107   110   1   1.5380e-01   1.9456e+05 ;    C31 - C34
   107   116   1   1.0970e-01   3.1455e+05 ;    C31 - H56
   108   109   1   1.5380e-01   1.9456e+05 ;    C32 - C33
   108   111   1   1.5380e-01   1.9456e+05 ;    C32 - C35
   108   113   1   1.0970e-01   3.1455e+05 ;    C32 - H53
   108   123   1   1.4230e-01   2.4552e+05 ;    C32 - O28
   109   112   1   1.0970e-01   3.1455e+05 ;    C33 - H52
   109   125   1   1.4230e-01   2.4552e+05 ;    C33 - O29
   110   114   1   1.0970e-01   3.1455e+05 ;    C34 - H54
   110   117   1   1.4320e-01   2.3832e+05 ;    C34 - O26
   110   118   1   1.5380e-01   1.9456e+05 ;    C34 - C36
   111   115   1   1.0960e-01   3.1572e+05 ;    C35 - H55
   111   117   1   1.4320e-01   2.3832e+05 ;    C35 - O26
   111   127   1   1.4320e-01   2.3832e+05 ;    C35 - O30
   118   119   1   1.0970e-01   3.1455e+05 ;    C36 - H57
   118   120   1   1.0970e-01   3.1455e+05 ;    C36 - H58
   118   121   1   1.4230e-01   2.4552e+05 ;    C36 - O27
   121   122   1   9.7300e-02   4.7154e+05 ;    O27 - H59
   123   124   1   9.7300e-02   4.7154e+05 ;    O28 - H60
   125   126   1   9.7300e-02   4.7154e+05 ;    O29 - H61
   127   128   1   1.4320e-01   2.3832e+05 ;    O30 - C37
   128   130   1   1.5380e-01   1.9456e+05 ;    C37 - C39
   128   131   1   1.5380e-01   1.9456e+05 ;    C37 - C40
   128   134   1   1.0970e-01   3.1455e+05 ;    C37 - H63
   129   132   1   1.5380e-01   1.9456e+05 ;    C38 - C41
   129   133   1   1.0960e-01   3.1572e+05 ;    C38 - H62
   129   142   1   1.4320e-01   2.3832e+05 ;    C38 - O33
   129   148   1   1.4320e-01   2.3832e+05 ;    C38 - O35
   130   137   1   1.0970e-01   3.1455e+05 ;    C39 - H66
   130   142   1   1.4320e-01   2.3832e+05 ;    C39 - O33
   130   143   1   1.5380e-01   1.9456e+05 ;    C39 - C42
   131   132   1   1.5380e-01   1.9456e+05 ;    C40 - C41
   131   135   1   1.0970e-01   3.1455e+05 ;    C40 - H64
   131   138   1   1.4230e-01   2.4552e+05 ;    C40 - O31
   132   136   1   1.0970e-01   3.1455e+05 ;    C41 - H65
   132   140   1   1.4230e-01   2.4552e+05 ;    C41 - O32
   138   139   1   9.7300e-02   4.7154e+05 ;    O31 - H67
   140   141   1   9.7300e-02   4.7154e+05 ;    O32 - H68
   143   144   1   1.0970e-01   3.1455e+05 ;    C42 - H69
   143   145   1   1.0970e-01   3.1455e+05 ;    C42 - H70
   143   146   1   1.4230e-01   2.4552e+05 ;    C42 - O34
   146   147   1   9.7300e-02   4.7154e+05 ;    O34 - H71
   148   149   1   1.4320e-01   2.3832e+05 ;    O35 - C43
   149   151   1   1.5380e-01   1.9456e+05 ;    C43 - C45
   149   152   1   1.5380e-01   1.9456e+05 ;    C43 - C46
   149   158   1   1.0970e-01   3.1455e+05 ;    C43 - H76
   150   151   1   1.5380e-01   1.9456e+05 ;    C44 - C45
   150   153   1   1.5380e-01   1.9456e+05 ;    C44 - C47
   150   155   1   1.0970e-01   3.1455e+05 ;    C44 - H73
   150   165   1   1.4230e-01   2.4552e+05 ;    C44 - O38
   151   154   1   1.0970e-01   3.1455e+05 ;    C45 - H72
   151   167   1   1.4230e-01   2.4552e+05 ;    C45 - O39
   152   156   1   1.0970e-01   3.1455e+05 ;    C46 - H74
   152   159   1   1.4320e-01   2.3832e+05 ;    C46 - O36
   152   160   1   1.5380e-01   1.9456e+05 ;    C46 - C48
   153   157   1   1.0960e-01   3.1572e+05 ;    C47 - H75
   153   159   1   1.4320e-01   2.3832e+05 ;    C47 - O36
   153   169   1   1.4320e-01   2.3832e+05 ;    C47 - O40
   160   161   1   1.0970e-01   3.1455e+05 ;    C48 - H77
   160   162   1   1.0970e-01   3.1455e+05 ;    C48 - H78
   160   163   1   1.4230e-01   2.4552e+05 ;    C48 - O37
   163   164   1   9.7300e-02   4.7154e+05 ;    O37 - H79
   165   166   1   9.7300e-02   4.7154e+05 ;    O38 - H80
   167   168   1   9.7300e-02   4.7154e+05 ;    O39 - H81
   169   170   1   1.4320e-01   2.3832e+05 ;    O40 - C49
   170   172   1   1.5380e-01   1.9456e+05 ;    C49 - C51
   170   173   1   1.5380e-01   1.9456e+05 ;    C49 - C52
   170   176   1   1.0970e-01   3.1455e+05 ;    C49 - H83
   171   174   1   1.5380e-01   1.9456e+05 ;    C50 - C53
   171   175   1   1.0960e-01   3.1572e+05 ;    C50 - H82
   171   184   1   1.4320e-01   2.3832e+05 ;    C50 - O43
   171   190   1   1.4320e-01   2.3832e+05 ;    C50 - O45
   172   179   1   1.0970e-01   3.1455e+05 ;    C51 - H86
   172   184   1   1.4320e-01   2.3832e+05 ;    C51 - O43
   172   185   1   1.5380e-01   1.9456e+05 ;    C51 - C54
   173   174   1   1.5380e-01   1.9456e+05 ;    C52 - C53
   173   177   1   1.0970e-01   3.1455e+05 ;    C52 - H84
   173   180   1   1.4230e-01   2.4552e+05 ;    C52 - O41
   174   178   1   1.0970e-01   3.1455e+05 ;    C53 - H85
   174   182   1   1.4230e-01   2.4552e+05 ;    C53 - O42
   180   181   1   9.7300e-02   4.7154e+05 ;    O41 - H87
   182   183   1   9.7300e-02   4.7154e+05 ;    O42 - H88
   185   186   1   1.0970e-01   3.1455e+05 ;    C54 - H89
   185   187   1   1.0970e-01   3.1455e+05 ;    C54 - H90
   185   188   1   1.4230e-01   2.4552e+05 ;    C54 - O44
   188   189   1   9.7300e-02   4.7154e+05 ;    O44 - H91
   190   191   1   1.4320e-01   2.3832e+05 ;    O45 - C55
   191   193   1   1.5380e-01   1.9456e+05 ;    C55 - C57
   191   194   1   1.5380e-01   1.9456e+05 ;    C55 - C58
   191   200   1   1.0970e-01   3.1455e+05 ;    C55 - H96
   192   193   1   1.5380e-01   1.9456e+05 ;    C56 - C57
   192   195   1   1.5380e-01   1.9456e+05 ;    C56 - C59
   192   197   1   1.0970e-01   3.1455e+05 ;    C56 - H93
   192   207   1   1.4230e-01   2.4552e+05 ;    C56 - O48
   193   196   1   1.0970e-01   3.1455e+05 ;    C57 - H92
   193   209   1   1.4230e-01   2.4552e+05 ;    C57 - O49
   194   198   1   1.0970e-01   3.1455e+05 ;    C58 - H94
   194   201   1   1.4320e-01   2.3832e+05 ;    C58 - O46
   194   202   1   1.5380e-01   1.9456e+05 ;    C58 - C60
   195   199   1   1.0960e-01   3.1572e+05 ;    C59 - H95
   195   201   1   1.4320e-01   2.3832e+05 ;    C59 - O46
   195   211   1   1.4230e-01   2.4552e+05 ;    C59 - O50
   202   203   1   1.0970e-01   3.1455e+05 ;    C60 - H97
   202   204   1   1.0970e-01   3.1455e+05 ;    C60 - H98
   202   205   1   1.4230e-01   2.4552e+05 ;    C60 - O47
   205   206   1   9.7300e-02   4.7154e+05 ;    O47 - H99
   207   208   1   9.7300e-02   4.7154e+05 ;    O48 - H100
   209   210   1   9.7300e-02   4.7154e+05 ;    O49 - H101
   211   212   1   9.7300e-02   4.7154e+05 ;    O50 - H102
   213   214   1   1.0970e-01   3.1455e+05 ;     H1 - C1
   213   221   1   0.1090e+00   3.1455e+05 ;     H1 - H4
   214   216   1   1.5380e-01   1.9456e+05 ;     C1 - C3
   214   217   1   1.5380e-01   1.9456e+05 ;     C1 - C4
   214   220   1   1.0970e-01   3.1455e+05 ;     C1 - H3
   215   218   1   1.5380e-01   1.9456e+05 ;     C2 - C5
   215   219   1   1.0960e-01   3.1572e+05 ;     C2 - H2
   215   228   1   1.4320e-01   2.3832e+05 ;     C2 - O3
   215   234   1   1.4320e-01   2.3832e+05 ;     C2 - O5
   216   223   1   1.0970e-01   3.1455e+05 ;     C3 - H6
   216   228   1   1.4320e-01   2.3832e+05 ;     C3 - O3
   216   229   1   1.5380e-01   1.9456e+05 ;     C3 - C6
   217   218   1   1.5380e-01   1.9456e+05 ;     C4 - C5
   217   221   1   1.0970e-01   3.1455e+05 ;     C4 - H4
   217   224   1   1.4230e-01   2.4552e+05 ;     C4 - O1
   218   222   1   1.0970e-01   3.1455e+05 ;     C5 - H5
   218   226   1   1.4230e-01   2.4552e+05 ;     C5 - O2
   224   225   1   9.7300e-02   4.7154e+05 ;     O1 - H7
   226   227   1   9.7300e-02   4.7154e+05 ;     O2 - H8
   229   230   1   1.0970e-01   3.1455e+05 ;     C6 - H9
   229   231   1   1.0970e-01   3.1455e+05 ;     C6 - H10
   229   232   1   1.4230e-01   2.4552e+05 ;     C6 - O4
   232   233   1   9.7300e-02   4.7154e+05 ;     O4 - H11
   234   235   1   1.4320e-01   2.3832e+05 ;     O5 - C7
   235   237   1   1.5380e-01   1.9456e+05 ;     C7 - C9
   235   238   1   1.5380e-01   1.9456e+05 ;     C7 - C10
   235   244   1   1.0970e-01   3.1455e+05 ;     C7 - H16
   236   237   1   1.5380e-01   1.9456e+05 ;     C8 - C9
   236   239   1   1.5380e-01   1.9456e+05 ;     C8 - C11
   236   241   1   1.0970e-01   3.1455e+05 ;     C8 - H13
   236   251   1   1.4230e-01   2.4552e+05 ;     C8 - O8
   237   240   1   1.0970e-01   3.1455e+05 ;     C9 - H12
   237   253   1   1.4230e-01   2.4552e+05 ;     C9 - O9
   238   242   1   1.0970e-01   3.1455e+05 ;    C10 - H14
   238   245   1   1.4320e-01   2.3832e+05 ;    C10 - O6
   238   246   1   1.5380e-01   1.9456e+05 ;    C10 - C12
   239   243   1   1.0960e-01   3.1572e+05 ;    C11 - H15
   239   245   1   1.4320e-01   2.3832e+05 ;    C11 - O6
   239   255   1   1.4320e-01   2.3832e+05 ;    C11 - O10
   246   247   1   1.0970e-01   3.1455e+05 ;    C12 - H17
   246   248   1   1.0970e-01   3.1455e+05 ;    C12 - H18
   246   249   1   1.4230e-01   2.4552e+05 ;    C12 - O7
   249   250   1   9.7300e-02   4.7154e+05 ;     O7 - H19
   251   252   1   9.7300e-02   4.7154e+05 ;     O8 - H20
   253   254   1   9.7300e-02   4.7154e+05 ;     O9 - H21
   255   256   1   1.4320e-01   2.3832e+05 ;    O10 - C13
   256   258   1   1.5380e-01   1.9456e+05 ;    C13 - C15
   256   259   1   1.5380e-01   1.9456e+05 ;    C13 - C16
   256   262   1   1.0970e-01   3.1455e+05 ;    C13 - H23
   257   260   1   1.5380e-01   1.9456e+05 ;    C14 - C17
   257   261   1   1.0960e-01   3.1572e+05 ;    C14 - H22
   257   270   1   1.4320e-01   2.3832e+05 ;    C14 - O13
   257   276   1   1.4320e-01   2.3832e+05 ;    C14 - O15
   258   265   1   1.0970e-01   3.1455e+05 ;    C15 - H26
   258   270   1   1.4320e-01   2.3832e+05 ;    C15 - O13
   258   271   1   1.5380e-01   1.9456e+05 ;    C15 - C18
   259   260   1   1.5380e-01   1.9456e+05 ;    C16 - C17
   259   263   1   1.0970e-01   3.1455e+05 ;    C16 - H24
   259   266   1   1.4230e-01   2.4552e+05 ;    C16 - O11
   260   264   1   1.0970e-01   3.1455e+05 ;    C17 - H25
   260   268   1   1.4230e-01   2.4552e+05 ;    C17 - O12
   266   267   1   9.7300e-02   4.7154e+05 ;    O11 - H27
   268   269   1   9.7300e-02   4.7154e+05 ;    O12 - H28
   271   272   1   1.0970e-01   3.1455e+05 ;    C18 - H29
   271   273   1   1.0970e-01   3.1455e+05 ;    C18 - H30
   271   274   1   1.4230e-01   2.4552e+05 ;    C18 - O14
   274   275   1   9.7300e-02   4.7154e+05 ;    O14 - H31
   276   277   1   1.4320e-01   2.3832e+05 ;    O15 - C19
   277   279   1   1.5380e-01   1.9456e+05 ;    C19 - C21
   277   280   1   1.5380e-01   1.9456e+05 ;    C19 - C22
   277   286   1   1.0970e-01   3.1455e+05 ;    C19 - H36
   278   279   1   1.5380e-01   1.9456e+05 ;    C20 - C21
   278   281   1   1.5380e-01   1.9456e+05 ;    C20 - C23
   278   283   1   1.0970e-01   3.1455e+05 ;    C20 - H33
   278   293   1   1.4230e-01   2.4552e+05 ;    C20 - O18
   279   282   1   1.0970e-01   3.1455e+05 ;    C21 - H32
   279   295   1   1.4230e-01   2.4552e+05 ;    C21 - O19
   280   284   1   1.0970e-01   3.1455e+05 ;    C22 - H34
   280   287   1   1.4320e-01   2.3832e+05 ;    C22 - O16
   280   288   1   1.5380e-01   1.9456e+05 ;    C22 - C24
   281   285   1   1.0960e-01   3.1572e+05 ;    C23 - H35
   281   287   1   1.4320e-01   2.3832e+05 ;    C23 - O16
   281   297   1   1.4320e-01   2.3832e+05 ;    C23 - O20
   288   289   1   1.0970e-01   3.1455e+05 ;    C24 - H37
   288   290   1   1.0970e-01   3.1455e+05 ;    C24 - H38
   288   291   1   1.4230e-01   2.4552e+05 ;    C24 - O17
   291   292   1   9.7300e-02   4.7154e+05 ;    O17 - H39
   293   294   1   9.7300e-02   4.7154e+05 ;    O18 - H40
   295   296   1   9.7300e-02   4.7154e+05 ;    O19 - H41
   297   298   1   1.4320e-01   2.3832e+05 ;    O20 - C25
   298   300   1   1.5380e-01   1.9456e+05 ;    C25 - C27
   298   301   1   1.5380e-01   1.9456e+05 ;    C25 - C28
   298   304   1   1.0970e-01   3.1455e+05 ;    C25 - H43
   299   302   1   1.5380e-01   1.9456e+05 ;    C26 - C29
   299   303   1   1.0960e-01   3.1572e+05 ;    C26 - H42
   299   312   1   1.4320e-01   2.3832e+05 ;    C26 - O23
   299   318   1   1.4320e-01   2.3832e+05 ;    C26 - O25
   300   307   1   1.0970e-01   3.1455e+05 ;    C27 - H46
   300   312   1   1.4320e-01   2.3832e+05 ;    C27 - O23
   300   313   1   1.5380e-01   1.9456e+05 ;    C27 - C30
   301   302   1   1.5380e-01   1.9456e+05 ;    C28 - C29
   301   305   1   1.0970e-01   3.1455e+05 ;    C28 - H44
   301   308   1   1.4230e-01   2.4552e+05 ;    C28 - O21
   302   306   1   1.0970e-01   3.1455e+05 ;    C29 - H45
   302   310   1   1.4230e-01   2.4552e+05 ;    C29 - O22
   308   309   1   9.7300e-02   4.7154e+05 ;    O21 - H47
   310   311   1   9.7300e-02   4.7154e+05 ;    O22 - H48
   313   314   1   1.0970e-01   3.1455e+05 ;    C30 - H49
   313   315   1   1.0970e-01   3.1455e+05 ;    C30 - H50
   313   316   1   1.4230e-01   2.4552e+05 ;    C30 - O24
   316   317   1   9.7300e-02   4.7154e+05 ;    O24 - H51
   318   319   1   1.4320e-01   2.3832e+05 ;    O25 - C31
   319   321   1   1.5380e-01   1.9456e+05 ;    C31 - C33
   319   322   1   1.5380e-01   1.9456e+05 ;    C31 - C34
   319   328   1   1.0970e-01   3.1455e+05 ;    C31 - H56
   320   321   1   1.5380e-01   1.9456e+05 ;    C32 - C33
   320   323   1   1.5380e-01   1.9456e+05 ;    C32 - C35
   320   325   1   1.0970e-01   3.1455e+05 ;    C32 - H53
   320   335   1   1.4230e-01   2.4552e+05 ;    C32 - O28
   321   324   1   1.0970e-01   3.1455e+05 ;    C33 - H52
   321   337   1   1.4230e-01   2.4552e+05 ;    C33 - O29
   322   326   1   1.0970e-01   3.1455e+05 ;    C34 - H54
   322   329   1   1.4320e-01   2.3832e+05 ;    C34 - O26
   322   330   1   1.5380e-01   1.9456e+05 ;    C34 - C36
   323   327   1   1.0960e-01   3.1572e+05 ;    C35 - H55
   323   329   1   1.4320e-01   2.3832e+05 ;    C35 - O26
   323   339   1   1.4320e-01   2.3832e+05 ;    C35 - O30
   330   331   1   1.0970e-01   3.1455e+05 ;    C36 - H57
   330   332   1   1.0970e-01   3.1455e+05 ;    C36 - H58
   330   333   1   1.4230e-01   2.4552e+05 ;    C36 - O27
   333   334   1   9.7300e-02   4.7154e+05 ;    O27 - H59
   335   336   1   9.7300e-02   4.7154e+05 ;    O28 - H60
   337   338   1   9.7300e-02   4.7154e+05 ;    O29 - H61
   339   340   1   1.4320e-01   2.3832e+05 ;    O30 - C37
   340   342   1   1.5380e-01   1.9456e+05 ;    C37 - C39
   340   343   1   1.5380e-01   1.9456e+05 ;    C37 - C40
   340   346   1   1.0970e-01   3.1455e+05 ;    C37 - H63
   341   344   1   1.5380e-01   1.9456e+05 ;    C38 - C41
   341   345   1   1.0960e-01   3.1572e+05 ;    C38 - H62
   341   354   1   1.4320e-01   2.3832e+05 ;    C38 - O33
   341   360   1   1.4320e-01   2.3832e+05 ;    C38 - O35
   342   349   1   1.0970e-01   3.1455e+05 ;    C39 - H66
   342   354   1   1.4320e-01   2.3832e+05 ;    C39 - O33
   342   355   1   1.5380e-01   1.9456e+05 ;    C39 - C42
   343   344   1   1.5380e-01   1.9456e+05 ;    C40 - C41
   343   347   1   1.0970e-01   3.1455e+05 ;    C40 - H64
   343   350   1   1.4230e-01   2.4552e+05 ;    C40 - O31
   344   348   1   1.0970e-01   3.1455e+05 ;    C41 - H65
   344   352   1   1.4230e-01   2.4552e+05 ;    C41 - O32
   350   351   1   9.7300e-02   4.7154e+05 ;    O31 - H67
   352   353   1   9.7300e-02   4.7154e+05 ;    O32 - H68
   355   356   1   1.0970e-01   3.1455e+05 ;    C42 - H69
   355   357   1   1.0970e-01   3.1455e+05 ;    C42 - H70
   355   358   1   1.4230e-01   2.4552e+05 ;    C42 - O34
   358   359   1   9.7300e-02   4.7154e+05 ;    O34 - H71
   360   361   1   1.4320e-01   2.3832e+05 ;    O35 - C43
   361   363   1   1.5380e-01   1.9456e+05 ;    C43 - C45
   361   364   1   1.5380e-01   1.9456e+05 ;    C43 - C46
   361   370   1   1.0970e-01   3.1455e+05 ;    C43 - H76
   362   363   1   1.5380e-01   1.9456e+05 ;    C44 - C45
   362   365   1   1.5380e-01   1.9456e+05 ;    C44 - C47
   362   367   1   1.0970e-01   3.1455e+05 ;    C44 - H73
   362   377   1   1.4230e-01   2.4552e+05 ;    C44 - O38
   363   366   1   1.0970e-01   3.1455e+05 ;    C45 - H72
   363   379   1   1.4230e-01   2.4552e+05 ;    C45 - O39
   364   368   1   1.0970e-01   3.1455e+05 ;    C46 - H74
   364   371   1   1.4320e-01   2.3832e+05 ;    C46 - O36
   364   372   1   1.5380e-01   1.9456e+05 ;    C46 - C48
   365   369   1   1.0960e-01   3.1572e+05 ;    C47 - H75
   365   371   1   1.4320e-01   2.3832e+05 ;    C47 - O36
   365   381   1   1.4320e-01   2.3832e+05 ;    C47 - O40
   372   373   1   1.0970e-01   3.1455e+05 ;    C48 - H77
   372   374   1   1.0970e-01   3.1455e+05 ;    C48 - H78
   372   375   1   1.4230e-01   2.4552e+05 ;    C48 - O37
   375   376   1   9.7300e-02   4.7154e+05 ;    O37 - H79
   377   378   1   9.7300e-02   4.7154e+05 ;    O38 - H80
   379   380   1   9.7300e-02   4.7154e+05 ;    O39 - H81
   381   382   1   1.4320e-01   2.3832e+05 ;    O40 - C49
   382   384   1   1.5380e-01   1.9456e+05 ;    C49 - C51
   382   385   1   1.5380e-01   1.9456e+05 ;    C49 - C52
   382   388   1   1.0970e-01   3.1455e+05 ;    C49 - H83
   383   386   1   1.5380e-01   1.9456e+05 ;    C50 - C53
   383   387   1   1.0960e-01   3.1572e+05 ;    C50 - H82
   383   396   1   1.4320e-01   2.3832e+05 ;    C50 - O43
   383   402   1   1.4320e-01   2.3832e+05 ;    C50 - O45
   384   391   1   1.0970e-01   3.1455e+05 ;    C51 - H86
   384   396   1   1.4320e-01   2.3832e+05 ;    C51 - O43
   384   397   1   1.5380e-01   1.9456e+05 ;    C51 - C54
   385   386   1   1.5380e-01   1.9456e+05 ;    C52 - C53
   385   389   1   1.0970e-01   3.1455e+05 ;    C52 - H84
   385   392   1   1.4230e-01   2.4552e+05 ;    C52 - O41
   386   390   1   1.0970e-01   3.1455e+05 ;    C53 - H85
   386   394   1   1.4230e-01   2.4552e+05 ;    C53 - O42
   392   393   1   9.7300e-02   4.7154e+05 ;    O41 - H87
   394   395   1   9.7300e-02   4.7154e+05 ;    O42 - H88
   397   398   1   1.0970e-01   3.1455e+05 ;    C54 - H89
   397   399   1   1.0970e-01   3.1455e+05 ;    C54 - H90
   397   400   1   1.4230e-01   2.4552e+05 ;    C54 - O44
   400   401   1   9.7300e-02   4.7154e+05 ;    O44 - H91
   402   403   1   1.4320e-01   2.3832e+05 ;    O45 - C55
   403   405   1   1.5380e-01   1.9456e+05 ;    C55 - C57
   403   406   1   1.5380e-01   1.9456e+05 ;    C55 - C58
   403   412   1   1.0970e-01   3.1455e+05 ;    C55 - H96
   404   405   1   1.5380e-01   1.9456e+05 ;    C56 - C57
   404   407   1   1.5380e-01   1.9456e+05 ;    C56 - C59
   404   409   1   1.0970e-01   3.1455e+05 ;    C56 - H93
   404   419   1   1.4230e-01   2.4552e+05 ;    C56 - O48
   405   408   1   1.0970e-01   3.1455e+05 ;    C57 - H92
   405   421   1   1.4230e-01   2.4552e+05 ;    C57 - O49
   406   410   1   1.0970e-01   3.1455e+05 ;    C58 - H94
   406   413   1   1.4320e-01   2.3832e+05 ;    C58 - O46
   406   414   1   1.5380e-01   1.9456e+05 ;    C58 - C60
   407   411   1   1.0960e-01   3.1572e+05 ;    C59 - H95
   407   413   1   1.4320e-01   2.3832e+05 ;    C59 - O46
   407   423   1   1.4230e-01   2.4552e+05 ;    C59 - O50
   414   415   1   1.0970e-01   3.1455e+05 ;    C60 - H97
   414   416   1   1.0970e-01   3.1455e+05 ;    C60 - H98
   414   417   1   1.4230e-01   2.4552e+05 ;    C60 - O47
   417   418   1   9.7300e-02   4.7154e+05 ;    O47 - H99
   419   420   1   9.7300e-02   4.7154e+05 ;    O48 - H100
   421   422   1   9.7300e-02   4.7154e+05 ;    O49 - H101
   423   424   1   9.7300e-02   4.7154e+05 ;    O50 - H102
   425   426   1   1.0970e-01   3.1455e+05 ;     H1 - C1
   425   433   1   0.1090e+00   3.1455e+05 ;     H1 - H4
   426   428   1   1.5380e-01   1.9456e+05 ;     C1 - C3
   426   429   1   1.5380e-01   1.9456e+05 ;     C1 - C4
   426   432   1   1.0970e-01   3.1455e+05 ;     C1 - H3
   427   430   1   1.5380e-01   1.9456e+05 ;     C2 - C5
   427   431   1   1.0960e-01   3.1572e+05 ;     C2 - H2
   427   440   1   1.4320e-01   2.3832e+05 ;     C2 - O3
   427   446   1   1.4320e-01   2.3832e+05 ;     C2 - O5
   428   435   1   1.0970e-01   3.1455e+05 ;     C3 - H6
   428   440   1   1.4320e-01   2.3832e+05 ;     C3 - O3
   428   441   1   1.5380e-01   1.9456e+05 ;     C3 - C6
   429   430   1   1.5380e-01   1.9456e+05 ;     C4 - C5
   429   433   1   1.0970e-01   3.1455e+05 ;     C4 - H4
   429   436   1   1.4230e-01   2.4552e+05 ;     C4 - O1
   430   434   1   1.0970e-01   3.1455e+05 ;     C5 - H5
   430   438   1   1.4230e-01   2.4552e+05 ;     C5 - O2
   436   437   1   9.7300e-02   4.7154e+05 ;     O1 - H7
   438   439   1   9.7300e-02   4.7154e+05 ;     O2 - H8
   441   442   1   1.0970e-01   3.1455e+05 ;     C6 - H9
   441   443   1   1.0970e-01   3.1455e+05 ;     C6 - H10
   441   444   1   1.4230e-01   2.4552e+05 ;     C6 - O4
   444   445   1   9.7300e-02   4.7154e+05 ;     O4 - H11
   446   447   1   1.4320e-01   2.3832e+05 ;     O5 - C7
   447   449   1   1.5380e-01   1.9456e+05 ;     C7 - C9
   447   450   1   1.5380e-01   1.9456e+05 ;     C7 - C10
   447   456   1   1.0970e-01   3.1455e+05 ;     C7 - H16
   448   449   1   1.5380e-01   1.9456e+05 ;     C8 - C9
   448   451   1   1.5380e-01   1.9456e+05 ;     C8 - C11
   448   453   1   1.0970e-01   3.1455e+05 ;     C8 - H13
   448   463   1   1.4230e-01   2.4552e+05 ;     C8 - O8
   449   452   1   1.0970e-01   3.1455e+05 ;     C9 - H12
   449   465   1   1.4230e-01   2.4552e+05 ;     C9 - O9
   450   454   1   1.0970e-01   3.1455e+05 ;    C10 - H14
   450   457   1   1.4320e-01   2.3832e+05 ;    C10 - O6
   450   458   1   1.5380e-01   1.9456e+05 ;    C10 - C12
   451   455   1   1.0960e-01   3.1572e+05 ;    C11 - H15
   451   457   1   1.4320e-01   2.3832e+05 ;    C11 - O6
   451   467   1   1.4320e-01   2.3832e+05 ;    C11 - O10
   458   459   1   1.0970e-01   3.1455e+05 ;    C12 - H17
   458   460   1   1.0970e-01   3.1455e+05 ;    C12 - H18
   458   461   1   1.4230e-01   2.4552e+05 ;    C12 - O7
   461   462   1   9.7300e-02   4.7154e+05 ;     O7 - H19
   463   464   1   9.7300e-02   4.7154e+05 ;     O8 - H20
   465   466   1   9.7300e-02   4.7154e+05 ;     O9 - H21
   467   468   1   1.4320e-01   2.3832e+05 ;    O10 - C13
   468   470   1   1.5380e-01   1.9456e+05 ;    C13 - C15
   468   471   1   1.5380e-01   1.9456e+05 ;    C13 - C16
   468   474   1   1.0970e-01   3.1455e+05 ;    C13 - H23
   469   472   1   1.5380e-01   1.9456e+05 ;    C14 - C17
   469   473   1   1.0960e-01   3.1572e+05 ;    C14 - H22
   469   482   1   1.4320e-01   2.3832e+05 ;    C14 - O13
   469   488   1   1.4320e-01   2.3832e+05 ;    C14 - O15
   470   477   1   1.0970e-01   3.1455e+05 ;    C15 - H26
   470   482   1   1.4320e-01   2.3832e+05 ;    C15 - O13
   470   483   1   1.5380e-01   1.9456e+05 ;    C15 - C18
   471   472   1   1.5380e-01   1.9456e+05 ;    C16 - C17
   471   475   1   1.0970e-01   3.1455e+05 ;    C16 - H24
   471   478   1   1.4230e-01   2.4552e+05 ;    C16 - O11
   472   476   1   1.0970e-01   3.1455e+05 ;    C17 - H25
   472   480   1   1.4230e-01   2.4552e+05 ;    C17 - O12
   478   479   1   9.7300e-02   4.7154e+05 ;    O11 - H27
   480   481   1   9.7300e-02   4.7154e+05 ;    O12 - H28
   483   484   1   1.0970e-01   3.1455e+05 ;    C18 - H29
   483   485   1   1.0970e-01   3.1455e+05 ;    C18 - H30
   483   486   1   1.4230e-01   2.4552e+05 ;    C18 - O14
   486   487   1   9.7300e-02   4.7154e+05 ;    O14 - H31
   488   489   1   1.4320e-01   2.3832e+05 ;    O15 - C19
   489   491   1   1.5380e-01   1.9456e+05 ;    C19 - C21
   489   492   1   1.5380e-01   1.9456e+05 ;    C19 - C22
   489   498   1   1.0970e-01   3.1455e+05 ;    C19 - H36
   490   491   1   1.5380e-01   1.9456e+05 ;    C20 - C21
   490   493   1   1.5380e-01   1.9456e+05 ;    C20 - C23
   490   495   1   1.0970e-01   3.1455e+05 ;    C20 - H33
   490   505   1   1.4230e-01   2.4552e+05 ;    C20 - O18
   491   494   1   1.0970e-01   3.1455e+05 ;    C21 - H32
   491   507   1   1.4230e-01   2.4552e+05 ;    C21 - O19
   492   496   1   1.0970e-01   3.1455e+05 ;    C22 - H34
   492   499   1   1.4320e-01   2.3832e+05 ;    C22 - O16
   492   500   1   1.5380e-01   1.9456e+05 ;    C22 - C24
   493   497   1   1.0960e-01   3.1572e+05 ;    C23 - H35
   493   499   1   1.4320e-01   2.3832e+05 ;    C23 - O16
   493   509   1   1.4320e-01   2.3832e+05 ;    C23 - O20
   500   501   1   1.0970e-01   3.1455e+05 ;    C24 - H37
   500   502   1   1.0970e-01   3.1455e+05 ;    C24 - H38
   500   503   1   1.4230e-01   2.4552e+05 ;    C24 - O17
   503   504   1   9.7300e-02   4.7154e+05 ;    O17 - H39
   505   506   1   9.7300e-02   4.7154e+05 ;    O18 - H40
   507   508   1   9.7300e-02   4.7154e+05 ;    O19 - H41
   509   510   1   1.4320e-01   2.3832e+05 ;    O20 - C25
   510   512   1   1.5380e-01   1.9456e+05 ;    C25 - C27
   510   513   1   1.5380e-01   1.9456e+05 ;    C25 - C28
   510   516   1   1.0970e-01   3.1455e+05 ;    C25 - H43
   511   514   1   1.5380e-01   1.9456e+05 ;    C26 - C29
   511   515   1   1.0960e-01   3.1572e+05 ;    C26 - H42
   511   524   1   1.4320e-01   2.3832e+05 ;    C26 - O23
   511   530   1   1.4320e-01   2.3832e+05 ;    C26 - O25
   512   519   1   1.0970e-01   3.1455e+05 ;    C27 - H46
   512   524   1   1.4320e-01   2.3832e+05 ;    C27 - O23
   512   525   1   1.5380e-01   1.9456e+05 ;    C27 - C30
   513   514   1   1.5380e-01   1.9456e+05 ;    C28 - C29
   513   517   1   1.0970e-01   3.1455e+05 ;    C28 - H44
   513   520   1   1.4230e-01   2.4552e+05 ;    C28 - O21
   514   518   1   1.0970e-01   3.1455e+05 ;    C29 - H45
   514   522   1   1.4230e-01   2.4552e+05 ;    C29 - O22
   520   521   1   9.7300e-02   4.7154e+05 ;    O21 - H47
   522   523   1   9.7300e-02   4.7154e+05 ;    O22 - H48
   525   526   1   1.0970e-01   3.1455e+05 ;    C30 - H49
   525   527   1   1.0970e-01   3.1455e+05 ;    C30 - H50
   525   528   1   1.4230e-01   2.4552e+05 ;    C30 - O24
   528   529   1   9.7300e-02   4.7154e+05 ;    O24 - H51
   530   531   1   1.4320e-01   2.3832e+05 ;    O25 - C31
   531   533   1   1.5380e-01   1.9456e+05 ;    C31 - C33
   531   534   1   1.5380e-01   1.9456e+05 ;    C31 - C34
   531   540   1   1.0970e-01   3.1455e+05 ;    C31 - H56
   532   533   1   1.5380e-01   1.9456e+05 ;    C32 - C33
   532   535   1   1.5380e-01   1.9456e+05 ;    C32 - C35
   532   537   1   1.0970e-01   3.1455e+05 ;    C32 - H53
   532   547   1   1.4230e-01   2.4552e+05 ;    C32 - O28
   533   536   1   1.0970e-01   3.1455e+05 ;    C33 - H52
   533   549   1   1.4230e-01   2.4552e+05 ;    C33 - O29
   534   538   1   1.0970e-01   3.1455e+05 ;    C34 - H54
   534   541   1   1.4320e-01   2.3832e+05 ;    C34 - O26
   534   542   1   1.5380e-01   1.9456e+05 ;    C34 - C36
   535   539   1   1.0960e-01   3.1572e+05 ;    C35 - H55
   535   541   1   1.4320e-01   2.3832e+05 ;    C35 - O26
   535   551   1   1.4320e-01   2.3832e+05 ;    C35 - O30
   542   543   1   1.0970e-01   3.1455e+05 ;    C36 - H57
   542   544   1   1.0970e-01   3.1455e+05 ;    C36 - H58
   542   545   1   1.4230e-01   2.4552e+05 ;    C36 - O27
   545   546   1   9.7300e-02   4.7154e+05 ;    O27 - H59
   547   548   1   9.7300e-02   4.7154e+05 ;    O28 - H60
   549   550   1   9.7300e-02   4.7154e+05 ;    O29 - H61
   551   552   1   1.4320e-01   2.3832e+05 ;    O30 - C37
   552   554   1   1.5380e-01   1.9456e+05 ;    C37 - C39
   552   555   1   1.5380e-01   1.9456e+05 ;    C37 - C40
   552   558   1   1.0970e-01   3.1455e+05 ;    C37 - H63
   553   556   1   1.5380e-01   1.9456e+05 ;    C38 - C41
   553   557   1   1.0960e-01   3.1572e+05 ;    C38 - H62
   553   566   1   1.4320e-01   2.3832e+05 ;    C38 - O33
   553   572   1   1.4320e-01   2.3832e+05 ;    C38 - O35
   554   561   1   1.0970e-01   3.1455e+05 ;    C39 - H66
   554   566   1   1.4320e-01   2.3832e+05 ;    C39 - O33
   554   567   1   1.5380e-01   1.9456e+05 ;    C39 - C42
   555   556   1   1.5380e-01   1.9456e+05 ;    C40 - C41
   555   559   1   1.0970e-01   3.1455e+05 ;    C40 - H64
   555   562   1   1.4230e-01   2.4552e+05 ;    C40 - O31
   556   560   1   1.0970e-01   3.1455e+05 ;    C41 - H65
   556   564   1   1.4230e-01   2.4552e+05 ;    C41 - O32
   562   563   1   9.7300e-02   4.7154e+05 ;    O31 - H67
   564   565   1   9.7300e-02   4.7154e+05 ;    O32 - H68
   567   568   1   1.0970e-01   3.1455e+05 ;    C42 - H69
   567   569   1   1.0970e-01   3.1455e+05 ;    C42 - H70
   567   570   1   1.4230e-01   2.4552e+05 ;    C42 - O34
   570   571   1   9.7300e-02   4.7154e+05 ;    O34 - H71
   572   573   1   1.4320e-01   2.3832e+05 ;    O35 - C43
   573   575   1   1.5380e-01   1.9456e+05 ;    C43 - C45
   573   576   1   1.5380e-01   1.9456e+05 ;    C43 - C46
   573   582   1   1.0970e-01   3.1455e+05 ;    C43 - H76
   574   575   1   1.5380e-01   1.9456e+05 ;    C44 - C45
   574   577   1   1.5380e-01   1.9456e+05 ;    C44 - C47
   574   579   1   1.0970e-01   3.1455e+05 ;    C44 - H73
   574   589   1   1.4230e-01   2.4552e+05 ;    C44 - O38
   575   578   1   1.0970e-01   3.1455e+05 ;    C45 - H72
   575   591   1   1.4230e-01   2.4552e+05 ;    C45 - O39
   576   580   1   1.0970e-01   3.1455e+05 ;    C46 - H74
   576   583   1   1.4320e-01   2.3832e+05 ;    C46 - O36
   576   584   1   1.5380e-01   1.9456e+05 ;    C46 - C48
   577   581   1   1.0960e-01   3.1572e+05 ;    C47 - H75
   577   583   1   1.4320e-01   2.3832e+05 ;    C47 - O36
   577   593   1   1.4320e-01   2.3832e+05 ;    C47 - O40
   584   585   1   1.0970e-01   3.1455e+05 ;    C48 - H77
   584   586   1   1.0970e-01   3.1455e+05 ;    C48 - H78
   584   587   1   1.4230e-01   2.4552e+05 ;    C48 - O37
   587   588   1   9.7300e-02   4.7154e+05 ;    O37 - H79
   589   590   1   9.7300e-02   4.7154e+05 ;    O38 - H80
   591   592   1   9.7300e-02   4.7154e+05 ;    O39 - H81
   593   594   1   1.4320e-01   2.3832e+05 ;    O40 - C49
   594   596   1   1.5380e-01   1.9456e+05 ;    C49 - C51
   594   597   1   1.5380e-01   1.9456e+05 ;    C49 - C52
   594   600   1   1.0970e-01   3.1455e+05 ;    C49 - H83
   595   598   1   1.5380e-01   1.9456e+05 ;    C50 - C53
   595   599   1   1.0960e-01   3.1572e+05 ;    C50 - H82
   595   608   1   1.4320e-01   2.3832e+05 ;    C50 - O43
   595   614   1   1.4320e-01   2.3832e+05 ;    C50 - O45
   596   603   1   1.0970e-01   3.1455e+05 ;    C51 - H86
   596   608   1   1.4320e-01   2.3832e+05 ;    C51 - O43
   596   609   1   1.5380e-01   1.9456e+05 ;    C51 - C54
   597   598   1   1.5380e-01   1.9456e+05 ;    C52 - C53
   597   601   1   1.0970e-01   3.1455e+05 ;    C52 - H84
   597   604   1   1.4230e-01   2.4552e+05 ;    C52 - O41
   598   602   1   1.0970e-01   3.1455e+05 ;    C53 - H85
   598   606   1   1.4230e-01   2.4552e+05 ;    C53 - O42
   604   605   1   9.7300e-02   4.7154e+05 ;    O41 - H87
   606   607   1   9.7300e-02   4.7154e+05 ;    O42 - H88
   609   610   1   1.0970e-01   3.1455e+05 ;    C54 - H89
   609   611   1   1.0970e-01   3.1455e+05 ;    C54 - H90
   609   612   1   1.4230e-01   2.4552e+05 ;    C54 - O44
   612   613   1   9.7300e-02   4.7154e+05 ;    O44 - H91
   614   615   1   1.4320e-01   2.3832e+05 ;    O45 - C55
   615   617   1   1.5380e-01   1.9456e+05 ;    C55 - C57
   615   618   1   1.5380e-01   1.9456e+05 ;    C55 - C58
   615   624   1   1.0970e-01   3.1455e+05 ;    C55 - H96
   616   617   1   1.5380e-01   1.9456e+05 ;    C56 - C57
   616   619   1   1.5380e-01   1.9456e+05 ;    C56 - C59
   616   621   1   1.0970e-01   3.1455e+05 ;    C56 - H93
   616   631   1   1.4230e-01   2.4552e+05 ;    C56 - O48
   617   620   1   1.0970e-01   3.1455e+05 ;    C57 - H92
   617   633   1   1.4230e-01   2.4552e+05 ;    C57 - O49
   618   622   1   1.0970e-01   3.1455e+05 ;    C58 - H94
   618   625   1   1.4320e-01   2.3832e+05 ;    C58 - O46
   618   626   1   1.5380e-01   1.9456e+05 ;    C58 - C60
   619   623   1   1.0960e-01   3.1572e+05 ;    C59 - H95
   619   625   1   1.4320e-01   2.3832e+05 ;    C59 - O46
   619   635   1   1.4230e-01   2.4552e+05 ;    C59 - O50
   626   627   1   1.0970e-01   3.1455e+05 ;    C60 - H97
   626   628   1   1.0970e-01   3.1455e+05 ;    C60 - H98
   626   629   1   1.4230e-01   2.4552e+05 ;    C60 - O47
   629   630   1   9.7300e-02   4.7154e+05 ;    O47 - H99
   631   632   1   9.7300e-02   4.7154e+05 ;    O48 - H100
   633   634   1   9.7300e-02   4.7154e+05 ;    O49 - H101
   635   636   1   9.7300e-02   4.7154e+05 ;    O50 - H102
   637   638   1   1.0970e-01   3.1455e+05 ;     H1 - C1
   637   645   1   0.1090e+00   3.1455e+05 ;     H1 - H4
   638   640   1   1.5380e-01   1.9456e+05 ;     C1 - C3
   638   641   1   1.5380e-01   1.9456e+05 ;     C1 - C4
   638   644   1   1.0970e-01   3.1455e+05 ;     C1 - H3
   639   642   1   1.5380e-01   1.9456e+05 ;     C2 - C5
   639   643   1   1.0960e-01   3.1572e+05 ;     C2 - H2
   639   652   1   1.4320e-01   2.3832e+05 ;     C2 - O3
   639   658   1   1.4320e-01   2.3832e+05 ;     C2 - O5
   640   647   1   1.0970e-01   3.1455e+05 ;     C3 - H6
   640   652   1   1.4320e-01   2.3832e+05 ;     C3 - O3
   640   653   1   1.5380e-01   1.9456e+05 ;     C3 - C6
   641   642   1   1.5380e-01   1.9456e+05 ;     C4 - C5
   641   645   1   1.0970e-01   3.1455e+05 ;     C4 - H4
   641   648   1   1.4230e-01   2.4552e+05 ;     C4 - O1
   642   646   1   1.0970e-01   3.1455e+05 ;     C5 - H5
   642   650   1   1.4230e-01   2.4552e+05 ;     C5 - O2
   648   649   1   9.7300e-02   4.7154e+05 ;     O1 - H7
   650   651   1   9.7300e-02   4.7154e+05 ;     O2 - H8
   653   654   1   1.0970e-01   3.1455e+05 ;     C6 - H9
   653   655   1   1.0970e-01   3.1455e+05 ;     C6 - H10
   653   656   1   1.4230e-01   2.4552e+05 ;     C6 - O4
   656   657   1   9.7300e-02   4.7154e+05 ;     O4 - H11
   658   659   1   1.4320e-01   2.3832e+05 ;     O5 - C7
   659   661   1   1.5380e-01   1.9456e+05 ;     C7 - C9
   659   662   1   1.5380e-01   1.9456e+05 ;     C7 - C10
   659   668   1   1.0970e-01   3.1455e+05 ;     C7 - H16
   660   661   1   1.5380e-01   1.9456e+05 ;     C8 - C9
   660   663   1   1.5380e-01   1.9456e+05 ;     C8 - C11
   660   665   1   1.0970e-01   3.1455e+05 ;     C8 - H13
   660   675   1   1.4230e-01   2.4552e+05 ;     C8 - O8
   661   664   1   1.0970e-01   3.1455e+05 ;     C9 - H12
   661   677   1   1.4230e-01   2.4552e+05 ;     C9 - O9
   662   666   1   1.0970e-01   3.1455e+05 ;    C10 - H14
   662   669   1   1.4320e-01   2.3832e+05 ;    C10 - O6
   662   670   1   1.5380e-01   1.9456e+05 ;    C10 - C12
   663   667   1   1.0960e-01   3.1572e+05 ;    C11 - H15
   663   669   1   1.4320e-01   2.3832e+05 ;    C11 - O6
   663   679   1   1.4320e-01   2.3832e+05 ;    C11 - O10
   670   671   1   1.0970e-01   3.1455e+05 ;    C12 - H17
   670   672   1   1.0970e-01   3.1455e+05 ;    C12 - H18
   670   673   1   1.4230e-01   2.4552e+05 ;    C12 - O7
   673   674   1   9.7300e-02   4.7154e+05 ;     O7 - H19
   675   676   1   9.7300e-02   4.7154e+05 ;     O8 - H20
   677   678   1   9.7300e-02   4.7154e+05 ;     O9 - H21
   679   680   1   1.4320e-01   2.3832e+05 ;    O10 - C13
   680   682   1   1.5380e-01   1.9456e+05 ;    C13 - C15
   680   683   1   1.5380e-01   1.9456e+05 ;    C13 - C16
   680   686   1   1.0970e-01   3.1455e+05 ;    C13 - H23
   681   684   1   1.5380e-01   1.9456e+05 ;    C14 - C17
   681   685   1   1.0960e-01   3.1572e+05 ;    C14 - H22
   681   694   1   1.4320e-01   2.3832e+05 ;    C14 - O13
   681   700   1   1.4320e-01   2.3832e+05 ;    C14 - O15
   682   689   1   1.0970e-01   3.1455e+05 ;    C15 - H26
   682   694   1   1.4320e-01   2.3832e+05 ;    C15 - O13
   682   695   1   1.5380e-01   1.9456e+05 ;    C15 - C18
   683   684   1   1.5380e-01   1.9456e+05 ;    C16 - C17
   683   687   1   1.0970e-01   3.1455e+05 ;    C16 - H24
   683   690   1   1.4230e-01   2.4552e+05 ;    C16 - O11
   684   688   1   1.0970e-01   3.1455e+05 ;    C17 - H25
   684   692   1   1.4230e-01   2.4552e+05 ;    C17 - O12
   690   691   1   9.7300e-02   4.7154e+05 ;    O11 - H27
   692   693   1   9.7300e-02   4.7154e+05 ;    O12 - H28
   695   696   1   1.0970e-01   3.1455e+05 ;    C18 - H29
   695   697   1   1.0970e-01   3.1455e+05 ;    C18 - H30
   695   698   1   1.4230e-01   2.4552e+05 ;    C18 - O14
   698   699   1   9.7300e-02   4.7154e+05 ;    O14 - H31
   700   701   1   1.4320e-01   2.3832e+05 ;    O15 - C19
   701   703   1   1.5380e-01   1.9456e+05 ;    C19 - C21
   701   704   1   1.5380e-01   1.9456e+05 ;    C19 - C22
   701   710   1   1.0970e-01   3.1455e+05 ;    C19 - H36
   702   703   1   1.5380e-01   1.9456e+05 ;    C20 - C21
   702   705   1   1.5380e-01   1.9456e+05 ;    C20 - C23
   702   707   1   1.0970e-01   3.1455e+05 ;    C20 - H33
   702   717   1   1.4230e-01   2.4552e+05 ;    C20 - O18
   703   706   1   1.0970e-01   3.1455e+05 ;    C21 - H32
   703   719   1   1.4230e-01   2.4552e+05 ;    C21 - O19
   704   708   1   1.0970e-01   3.1455e+05 ;    C22 - H34
   704   711   1   1.4320e-01   2.3832e+05 ;    C22 - O16
   704   712   1   1.5380e-01   1.9456e+05 ;    C22 - C24
   705   709   1   1.0960e-01   3.1572e+05 ;    C23 - H35
   705   711   1   1.4320e-01   2.3832e+05 ;    C23 - O16
   705   721   1   1.4320e-01   2.3832e+05 ;    C23 - O20
   712   713   1   1.0970e-01   3.1455e+05 ;    C24 - H37
   712   714   1   1.0970e-01   3.1455e+05 ;    C24 - H38
   712   715   1   1.4230e-01   2.4552e+05 ;    C24 - O17
   715   716   1   9.7300e-02   4.7154e+05 ;    O17 - H39
   717   718   1   9.7300e-02   4.7154e+05 ;    O18 - H40
   719   720   1   9.7300e-02   4.7154e+05 ;    O19 - H41
   721   722   1   1.4320e-01   2.3832e+05 ;    O20 - C25
   722   724   1   1.5380e-01   1.9456e+05 ;    C25 - C27
   722   725   1   1.5380e-01   1.9456e+05 ;    C25 - C28
   722   728   1   1.0970e-01   3.1455e+05 ;    C25 - H43
   723   726   1   1.5380e-01   1.9456e+05 ;    C26 - C29
   723   727   1   1.0960e-01   3.1572e+05 ;    C26 - H42
   723   736   1   1.4320e-01   2.3832e+05 ;    C26 - O23
   723   742   1   1.4320e-01   2.3832e+05 ;    C26 - O25
   724   731   1   1.0970e-01   3.1455e+05 ;    C27 - H46
   724   736   1   1.4320e-01   2.3832e+05 ;    C27 - O23
   724   737   1   1.5380e-01   1.9456e+05 ;    C27 - C30
   725   726   1   1.5380e-01   1.9456e+05 ;    C28 - C29
   725   729   1   1.0970e-01   3.1455e+05 ;    C28 - H44
   725   732   1   1.4230e-01   2.4552e+05 ;    C28 - O21
   726   730   1   1.0970e-01   3.1455e+05 ;    C29 - H45
   726   734   1   1.4230e-01   2.4552e+05 ;    C29 - O22
   732   733   1   9.7300e-02   4.7154e+05 ;    O21 - H47
   734   735   1   9.7300e-02   4.7154e+05 ;    O22 - H48
   737   738   1   1.0970e-01   3.1455e+05 ;    C30 - H49
   737   739   1   1.0970e-01   3.1455e+05 ;    C30 - H50
   737   740   1   1.4230e-01   2.4552e+05 ;    C30 - O24
   740   741   1   9.7300e-02   4.7154e+05 ;    O24 - H51
   742   743   1   1.4320e-01   2.3832e+05 ;    O25 - C31
   743   745   1   1.5380e-01   1.9456e+05 ;    C31 - C33
   743   746   1   1.5380e-01   1.9456e+05 ;    C31 - C34
   743   752   1   1.0970e-01   3.1455e+05 ;    C31 - H56
   744   745   1   1.5380e-01   1.9456e+05 ;    C32 - C33
   744   747   1   1.5380e-01   1.9456e+05 ;    C32 - C35
   744   749   1   1.0970e-01   3.1455e+05 ;    C32 - H53
   744   759   1   1.4230e-01   2.4552e+05 ;    C32 - O28
   745   748   1   1.0970e-01   3.1455e+05 ;    C33 - H52
   745   761   1   1.4230e-01   2.4552e+05 ;    C33 - O29
   746   750   1   1.0970e-01   3.1455e+05 ;    C34 - H54
   746   753   1   1.4320e-01   2.3832e+05 ;    C34 - O26
   746   754   1   1.5380e-01   1.9456e+05 ;    C34 - C36
   747   751   1   1.0960e-01   3.1572e+05 ;    C35 - H55
   747   753   1   1.4320e-01   2.3832e+05 ;    C35 - O26
   747   763   1   1.4320e-01   2.3832e+05 ;    C35 - O30
   754   755   1   1.0970e-01   3.1455e+05 ;    C36 - H57
   754   756   1   1.0970e-01   3.1455e+05 ;    C36 - H58
   754   757   1   1.4230e-01   2.4552e+05 ;    C36 - O27
   757   758   1   9.7300e-02   4.7154e+05 ;    O27 - H59
   759   760   1   9.7300e-02   4.7154e+05 ;    O28 - H60
   761   762   1   9.7300e-02   4.7154e+05 ;    O29 - H61
   763   764   1   1.4320e-01   2.3832e+05 ;    O30 - C37
   764   766   1   1.5380e-01   1.9456e+05 ;    C37 - C39
   764   767   1   1.5380e-01   1.9456e+05 ;    C37 - C40
   764   770   1   1.0970e-01   3.1455e+05 ;    C37 - H63
   765   768   1   1.5380e-01   1.9456e+05 ;    C38 - C41
   765   769   1   1.0960e-01   3.1572e+05 ;    C38 - H62
   765   778   1   1.4320e-01   2.3832e+05 ;    C38 - O33
   765   784   1   1.4320e-01   2.3832e+05 ;    C38 - O35
   766   773   1   1.0970e-01   3.1455e+05 ;    C39 - H66
   766   778   1   1.4320e-01   2.3832e+05 ;    C39 - O33
   766   779   1   1.5380e-01   1.9456e+05 ;    C39 - C42
   767   768   1   1.5380e-01   1.9456e+05 ;    C40 - C41
   767   771   1   1.0970e-01   3.1455e+05 ;    C40 - H64
   767   774   1   1.4230e-01   2.4552e+05 ;    C40 - O31
   768   772   1   1.0970e-01   3.1455e+05 ;    C41 - H65
   768   776   1   1.4230e-01   2.4552e+05 ;    C41 - O32
   774   775   1   9.7300e-02   4.7154e+05 ;    O31 - H67
   776   777   1   9.7300e-02   4.7154e+05 ;    O32 - H68
   779   780   1   1.0970e-01   3.1455e+05 ;    C42 - H69
   779   781   1   1.0970e-01   3.1455e+05 ;    C42 - H70
   779   782   1   1.4230e-01   2.4552e+05 ;    C42 - O34
   782   783   1   9.7300e-02   4.7154e+05 ;    O34 - H71
   784   785   1   1.4320e-01   2.3832e+05 ;    O35 - C43
   785   787   1   1.5380e-01   1.9456e+05 ;    C43 - C45
   785   788   1   1.5380e-01   1.9456e+05 ;    C43 - C46
   785   794   1   1.0970e-01   3.1455e+05 ;    C43 - H76
   786   787   1   1.5380e-01   1.9456e+05 ;    C44 - C45
   786   789   1   1.5380e-01   1.9456e+05 ;    C44 - C47
   786   791   1   1.0970e-01   3.1455e+05 ;    C44 - H73
   786   801   1   1.4230e-01   2.4552e+05 ;    C44 - O38
   787   790   1   1.0970e-01   3.1455e+05 ;    C45 - H72
   787   803   1   1.4230e-01   2.4552e+05 ;    C45 - O39
   788   792   1   1.0970e-01   3.1455e+05 ;    C46 - H74
   788   795   1   1.4320e-01   2.3832e+05 ;    C46 - O36
   788   796   1   1.5380e-01   1.9456e+05 ;    C46 - C48
   789   793   1   1.0960e-01   3.1572e+05 ;    C47 - H75
   789   795   1   1.4320e-01   2.3832e+05 ;    C47 - O36
   789   805   1   1.4320e-01   2.3832e+05 ;    C47 - O40
   796   797   1   1.0970e-01   3.1455e+05 ;    C48 - H77
   796   798   1   1.0970e-01   3.1455e+05 ;    C48 - H78
   796   799   1   1.4230e-01   2.4552e+05 ;    C48 - O37
   799   800   1   9.7300e-02   4.7154e+05 ;    O37 - H79
   801   802   1   9.7300e-02   4.7154e+05 ;    O38 - H80
   803   804   1   9.7300e-02   4.7154e+05 ;    O39 - H81
   805   806   1   1.4320e-01   2.3832e+05 ;    O40 - C49
   806   808   1   1.5380e-01   1.9456e+05 ;    C49 - C51
   806   809   1   1.5380e-01   1.9456e+05 ;    C49 - C52
   806   812   1   1.0970e-01   3.1455e+05 ;    C49 - H83
   807   810   1   1.5380e-01   1.9456e+05 ;    C50 - C53
   807   811   1   1.0960e-01   3.1572e+05 ;    C50 - H82
   807   820   1   1.4320e-01   2.3832e+05 ;    C50 - O43
   807   826   1   1.4320e-01   2.3832e+05 ;    C50 - O45
   808   815   1   1.0970e-01   3.1455e+05 ;    C51 - H86
   808   820   1   1.4320e-01   2.3832e+05 ;    C51 - O43
   808   821   1   1.5380e-01   1.9456e+05 ;    C51 - C54
   809   810   1   1.5380e-01   1.9456e+05 ;    C52 - C53
   809   813   1   1.0970e-01   3.1455e+05 ;    C52 - H84
   809   816   1   1.4230e-01   2.4552e+05 ;    C52 - O41
   810   814   1   1.0970e-01   3.1455e+05 ;    C53 - H85
   810   818   1   1.4230e-01   2.4552e+05 ;    C53 - O42
   816   817   1   9.7300e-02   4.7154e+05 ;    O41 - H87
   818   819   1   9.7300e-02   4.7154e+05 ;    O42 - H88
   821   822   1   1.0970e-01   3.1455e+05 ;    C54 - H89
   821   823   1   1.0970e-01   3.1455e+05 ;    C54 - H90
   821   824   1   1.4230e-01   2.4552e+05 ;    C54 - O44
   824   825   1   9.7300e-02   4.7154e+05 ;    O44 - H91
   826   827   1   1.4320e-01   2.3832e+05 ;    O45 - C55
   827   829   1   1.5380e-01   1.9456e+05 ;    C55 - C57
   827   830   1   1.5380e-01   1.9456e+05 ;    C55 - C58
   827   836   1   1.0970e-01   3.1455e+05 ;    C55 - H96
   828   829   1   1.5380e-01   1.9456e+05 ;    C56 - C57
   828   831   1   1.5380e-01   1.9456e+05 ;    C56 - C59
   828   833   1   1.0970e-01   3.1455e+05 ;    C56 - H93
   828   843   1   1.4230e-01   2.4552e+05 ;    C56 - O48
   829   832   1   1.0970e-01   3.1455e+05 ;    C57 - H92
   829   845   1   1.4230e-01   2.4552e+05 ;    C57 - O49
   830   834   1   1.0970e-01   3.1455e+05 ;    C58 - H94
   830   837   1   1.4320e-01   2.3832e+05 ;    C58 - O46
   830   838   1   1.5380e-01   1.9456e+05 ;    C58 - C60
   831   835   1   1.0960e-01   3.1572e+05 ;    C59 - H95
   831   837   1   1.4320e-01   2.3832e+05 ;    C59 - O46
   831   847   1   1.4230e-01   2.4552e+05 ;    C59 - O50
   838   839   1   1.0970e-01   3.1455e+05 ;    C60 - H97
   838   840   1   1.0970e-01   3.1455e+05 ;    C60 - H98
   838   841   1   1.4230e-01   2.4552e+05 ;    C60 - O47
   841   842   1   9.7300e-02   4.7154e+05 ;    O47 - H99
   843   844   1   9.7300e-02   4.7154e+05 ;    O48 - H100
   845   846   1   9.7300e-02   4.7154e+05 ;    O49 - H101
   847   848   1   9.7300e-02   4.7154e+05 ;    O50 - H102
   849   850   1   1.0970e-01   3.1455e+05 ;     H1 - C1
   849   857   1   0.1090e+00   3.1455e+05 ;     H1 - H4
   850   852   1   1.5380e-01   1.9456e+05 ;     C1 - C3
   850   853   1   1.5380e-01   1.9456e+05 ;     C1 - C4
   850   856   1   1.0970e-01   3.1455e+05 ;     C1 - H3
   851   854   1   1.5380e-01   1.9456e+05 ;     C2 - C5
   851   855   1   1.0960e-01   3.1572e+05 ;     C2 - H2
   851   864   1   1.4320e-01   2.3832e+05 ;     C2 - O3
   851   870   1   1.4320e-01   2.3832e+05 ;     C2 - O5
   852   859   1   1.0970e-01   3.1455e+05 ;     C3 - H6
   852   864   1   1.4320e-01   2.3832e+05 ;     C3 - O3
   852   865   1   1.5380e-01   1.9456e+05 ;     C3 - C6
   853   854   1   1.5380e-01   1.9456e+05 ;     C4 - C5
   853   857   1   1.0970e-01   3.1455e+05 ;     C4 - H4
   853   860   1   1.4230e-01   2.4552e+05 ;     C4 - O1
   854   858   1   1.0970e-01   3.1455e+05 ;     C5 - H5
   854   862   1   1.4230e-01   2.4552e+05 ;     C5 - O2
   860   861   1   9.7300e-02   4.7154e+05 ;     O1 - H7
   862   863   1   9.7300e-02   4.7154e+05 ;     O2 - H8
   865   866   1   1.0970e-01   3.1455e+05 ;     C6 - H9
   865   867   1   1.0970e-01   3.1455e+05 ;     C6 - H10
   865   868   1   1.4230e-01   2.4552e+05 ;     C6 - O4
   868   869   1   9.7300e-02   4.7154e+05 ;     O4 - H11
   870   871   1   1.4320e-01   2.3832e+05 ;     O5 - C7
   871   873   1   1.5380e-01   1.9456e+05 ;     C7 - C9
   871   874   1   1.5380e-01   1.9456e+05 ;     C7 - C10
   871   880   1   1.0970e-01   3.1455e+05 ;     C7 - H16
   872   873   1   1.5380e-01   1.9456e+05 ;     C8 - C9
   872   875   1   1.5380e-01   1.9456e+05 ;     C8 - C11
   872   877   1   1.0970e-01   3.1455e+05 ;     C8 - H13
   872   887   1   1.4230e-01   2.4552e+05 ;     C8 - O8
   873   876   1   1.0970e-01   3.1455e+05 ;     C9 - H12
   873   889   1   1.4230e-01   2.4552e+05 ;     C9 - O9
   874   878   1   1.0970e-01   3.1455e+05 ;    C10 - H14
   874   881   1   1.4320e-01   2.3832e+05 ;    C10 - O6
   874   882   1   1.5380e-01   1.9456e+05 ;    C10 - C12
   875   879   1   1.0960e-01   3.1572e+05 ;    C11 - H15
   875   881   1   1.4320e-01   2.3832e+05 ;    C11 - O6
   875   891   1   1.4320e-01   2.3832e+05 ;    C11 - O10
   882   883   1   1.0970e-01   3.1455e+05 ;    C12 - H17
   882   884   1   1.0970e-01   3.1455e+05 ;    C12 - H18
   882   885   1   1.4230e-01   2.4552e+05 ;    C12 - O7
   885   886   1   9.7300e-02   4.7154e+05 ;     O7 - H19
   887   888   1   9.7300e-02   4.7154e+05 ;     O8 - H20
   889   890   1   9.7300e-02   4.7154e+05 ;     O9 - H21
   891   892   1   1.4320e-01   2.3832e+05 ;    O10 - C13
   892   894   1   1.5380e-01   1.9456e+05 ;    C13 - C15
   892   895   1   1.5380e-01   1.9456e+05 ;    C13 - C16
   892   898   1   1.0970e-01   3.1455e+05 ;    C13 - H23
   893   896   1   1.5380e-01   1.9456e+05 ;    C14 - C17
   893   897   1   1.0960e-01   3.1572e+05 ;    C14 - H22
   893   906   1   1.4320e-01   2.3832e+05 ;    C14 - O13
   893   912   1   1.4320e-01   2.3832e+05 ;    C14 - O15
   894   901   1   1.0970e-01   3.1455e+05 ;    C15 - H26
   894   906   1   1.4320e-01   2.3832e+05 ;    C15 - O13
   894   907   1   1.5380e-01   1.9456e+05 ;    C15 - C18
   895   896   1   1.5380e-01   1.9456e+05 ;    C16 - C17
   895   899   1   1.0970e-01   3.1455e+05 ;    C16 - H24
   895   902   1   1.4230e-01   2.4552e+05 ;    C16 - O11
   896   900   1   1.0970e-01   3.1455e+05 ;    C17 - H25
   896   904   1   1.4230e-01   2.4552e+05 ;    C17 - O12
   902   903   1   9.7300e-02   4.7154e+05 ;    O11 - H27
   904   905   1   9.7300e-02   4.7154e+05 ;    O12 - H28
   907   908   1   1.0970e-01   3.1455e+05 ;    C18 - H29
   907   909   1   1.0970e-01   3.1455e+05 ;    C18 - H30
   907   910   1   1.4230e-01   2.4552e+05 ;    C18 - O14
   910   911   1   9.7300e-02   4.7154e+05 ;    O14 - H31
   912   913   1   1.4320e-01   2.3832e+05 ;    O15 - C19
   913   915   1   1.5380e-01   1.9456e+05 ;    C19 - C21
   913   916   1   1.5380e-01   1.9456e+05 ;    C19 - C22
   913   922   1   1.0970e-01   3.1455e+05 ;    C19 - H36
   914   915   1   1.5380e-01   1.9456e+05 ;    C20 - C21
   914   917   1   1.5380e-01   1.9456e+05 ;    C20 - C23
   914   919   1   1.0970e-01   3.1455e+05 ;    C20 - H33
   914   929   1   1.4230e-01   2.4552e+05 ;    C20 - O18
   915   918   1   1.0970e-01   3.1455e+05 ;    C21 - H32
   915   931   1   1.4230e-01   2.4552e+05 ;    C21 - O19
   916   920   1   1.0970e-01   3.1455e+05 ;    C22 - H34
   916   923   1   1.4320e-01   2.3832e+05 ;    C22 - O16
   916   924   1   1.5380e-01   1.9456e+05 ;    C22 - C24
   917   921   1   1.0960e-01   3.1572e+05 ;    C23 - H35
   917   923   1   1.4320e-01   2.3832e+05 ;    C23 - O16
   917   933   1   1.4320e-01   2.3832e+05 ;    C23 - O20
   924   925   1   1.0970e-01   3.1455e+05 ;    C24 - H37
   924   926   1   1.0970e-01   3.1455e+05 ;    C24 - H38
   924   927   1   1.4230e-01   2.4552e+05 ;    C24 - O17
   927   928   1   9.7300e-02   4.7154e+05 ;    O17 - H39
   929   930   1   9.7300e-02   4.7154e+05 ;    O18 - H40
   931   932   1   9.7300e-02   4.7154e+05 ;    O19 - H41
   933   934   1   1.4320e-01   2.3832e+05 ;    O20 - C25
   934   936   1   1.5380e-01   1.9456e+05 ;    C25 - C27
   934   937   1   1.5380e-01   1.9456e+05 ;    C25 - C28
   934   940   1   1.0970e-01   3.1455e+05 ;    C25 - H43
   935   938   1   1.5380e-01   1.9456e+05 ;    C26 - C29
   935   939   1   1.0960e-01   3.1572e+05 ;    C26 - H42
   935   948   1   1.4320e-01   2.3832e+05 ;    C26 - O23
   935   954   1   1.4320e-01   2.3832e+05 ;    C26 - O25
   936   943   1   1.0970e-01   3.1455e+05 ;    C27 - H46
   936   948   1   1.4320e-01   2.3832e+05 ;    C27 - O23
   936   949   1   1.5380e-01   1.9456e+05 ;    C27 - C30
   937   938   1   1.5380e-01   1.9456e+05 ;    C28 - C29
   937   941   1   1.0970e-01   3.1455e+05 ;    C28 - H44
   937   944   1   1.4230e-01   2.4552e+05 ;    C28 - O21
   938   942   1   1.0970e-01   3.1455e+05 ;    C29 - H45
   938   946   1   1.4230e-01   2.4552e+05 ;    C29 - O22
   944   945   1   9.7300e-02   4.7154e+05 ;    O21 - H47
   946   947   1   9.7300e-02   4.7154e+05 ;    O22 - H48
   949   950   1   1.0970e-01   3.1455e+05 ;    C30 - H49
   949   951   1   1.0970e-01   3.1455e+05 ;    C30 - H50
   949   952   1   1.4230e-01   2.4552e+05 ;    C30 - O24
   952   953   1   9.7300e-02   4.7154e+05 ;    O24 - H51
   954   955   1   1.4320e-01   2.3832e+05 ;    O25 - C31
   955   957   1   1.5380e-01   1.9456e+05 ;    C31 - C33
   955   958   1   1.5380e-01   1.9456e+05 ;    C31 - C34
   955   964   1   1.0970e-01   3.1455e+05 ;    C31 - H56
   956   957   1   1.5380e-01   1.9456e+05 ;    C32 - C33
   956   959   1   1.5380e-01   1.9456e+05 ;    C32 - C35
   956   961   1   1.0970e-01   3.1455e+05 ;    C32 - H53
   956   971   1   1.4230e-01   2.4552e+05 ;    C32 - O28
   957   960   1   1.0970e-01   3.1455e+05 ;    C33 - H52
   957   973   1   1.4230e-01   2.4552e+05 ;    C33 - O29
   958   962   1   1.0970e-01   3.1455e+05 ;    C34 - H54
   958   965   1   1.4320e-01   2.3832e+05 ;    C34 - O26
   958   966   1   1.5380e-01   1.9456e+05 ;    C34 - C36
   959   963   1   1.0960e-01   3.1572e+05 ;    C35 - H55
   959   965   1   1.4320e-01   2.3832e+05 ;    C35 - O26
   959   975   1   1.4320e-01   2.3832e+05 ;    C35 - O30
   966   967   1   1.0970e-01   3.1455e+05 ;    C36 - H57
   966   968   1   1.0970e-01   3.1455e+05 ;    C36 - H58
   966   969   1   1.4230e-01   2.4552e+05 ;    C36 - O27
   969   970   1   9.7300e-02   4.7154e+05 ;    O27 - H59
   971   972   1   9.7300e-02   4.7154e+05 ;    O28 - H60
   973   974   1   9.7300e-02   4.7154e+05 ;    O29 - H61
   975   976   1   1.4320e-01   2.3832e+05 ;    O30 - C37
   976   978   1   1.5380e-01   1.9456e+05 ;    C37 - C39
   976   979   1   1.5380e-01   1.9456e+05 ;    C37 - C40
   976   982   1   1.0970e-01   3.1455e+05 ;    C37 - H63
   977   980   1   1.5380e-01   1.9456e+05 ;    C38 - C41
   977   981   1   1.0960e-01   3.1572e+05 ;    C38 - H62
   977   990   1   1.4320e-01   2.3832e+05 ;    C38 - O33
   977   996   1   1.4320e-01   2.3832e+05 ;    C38 - O35
   978   985   1   1.0970e-01   3.1455e+05 ;    C39 - H66
   978   990   1   1.4320e-01   2.3832e+05 ;    C39 - O33
   978   991   1   1.5380e-01   1.9456e+05 ;    C39 - C42
   979   980   1   1.5380e-01   1.9456e+05 ;    C40 - C41
   979   983   1   1.0970e-01   3.1455e+05 ;    C40 - H64
   979   986   1   1.4230e-01   2.4552e+05 ;    C40 - O31
   980   984   1   1.0970e-01   3.1455e+05 ;    C41 - H65
   980   988   1   1.4230e-01   2.4552e+05 ;    C41 - O32
   986   987   1   9.7300e-02   4.7154e+05 ;    O31 - H67
   988   989   1   9.7300e-02   4.7154e+05 ;    O32 - H68
   991   992   1   1.0970e-01   3.1455e+05 ;    C42 - H69
   991   993   1   1.0970e-01   3.1455e+05 ;    C42 - H70
   991   994   1   1.4230e-01   2.4552e+05 ;    C42 - O34
   994   995   1   9.7300e-02   4.7154e+05 ;    O34 - H71
   996   997   1   1.4320e-01   2.3832e+05 ;    O35 - C43
   997   999   1   1.5380e-01   1.9456e+05 ;    C43 - C45
   997  1000   1   1.5380e-01   1.9456e+05 ;    C43 - C46
   997  1006   1   1.0970e-01   3.1455e+05 ;    C43 - H76
   998   999   1   1.5380e-01   1.9456e+05 ;    C44 - C45
   998  1001   1   1.5380e-01   1.9456e+05 ;    C44 - C47
   998  1003   1   1.0970e-01   3.1455e+05 ;    C44 - H73
   998  1013   1   1.4230e-01   2.4552e+05 ;    C44 - O38
   999  1002   1   1.0970e-01   3.1455e+05 ;    C45 - H72
   999  1015   1   1.4230e-01   2.4552e+05 ;    C45 - O39
  1000  1004   1   1.0970e-01   3.1455e+05 ;    C46 - H74
  1000  1007   1   1.4320e-01   2.3832e+05 ;    C46 - O36
  1000  1008   1   1.5380e-01   1.9456e+05 ;    C46 - C48
  1001  1005   1   1.0960e-01   3.1572e+05 ;    C47 - H75
  1001  1007   1   1.4320e-01   2.3832e+05 ;    C47 - O36
  1001  1017   1   1.4320e-01   2.3832e+05 ;    C47 - O40
  1008  1009   1   1.0970e-01   3.1455e+05 ;    C48 - H77
  1008  1010   1   1.0970e-01   3.1455e+05 ;    C48 - H78
  1008  1011   1   1.4230e-01   2.4552e+05 ;    C48 - O37
  1011  1012   1   9.7300e-02   4.7154e+05 ;    O37 - H79
  1013  1014   1   9.7300e-02   4.7154e+05 ;    O38 - H80
  1015  1016   1   9.7300e-02   4.7154e+05 ;    O39 - H81
  1017  1018   1   1.4320e-01   2.3832e+05 ;    O40 - C49
  1018  1020   1   1.5380e-01   1.9456e+05 ;    C49 - C51
  1018  1021   1   1.5380e-01   1.9456e+05 ;    C49 - C52
  1018  1024   1   1.0970e-01   3.1455e+05 ;    C49 - H83
  1019  1022   1   1.5380e-01   1.9456e+05 ;    C50 - C53
  1019  1023   1   1.0960e-01   3.1572e+05 ;    C50 - H82
  1019  1032   1   1.4320e-01   2.3832e+05 ;    C50 - O43
  1019  1038   1   1.4320e-01   2.3832e+05 ;    C50 - O45
  1020  1027   1   1.0970e-01   3.1455e+05 ;    C51 - H86
  1020  1032   1   1.4320e-01   2.3832e+05 ;    C51 - O43
  1020  1033   1   1.5380e-01   1.9456e+05 ;    C51 - C54
  1021  1022   1   1.5380e-01   1.9456e+05 ;    C52 - C53
  1021  1025   1   1.0970e-01   3.1455e+05 ;    C52 - H84
  1021  1028   1   1.4230e-01   2.4552e+05 ;    C52 - O41
  1022  1026   1   1.0970e-01   3.1455e+05 ;    C53 - H85
  1022  1030   1   1.4230e-01   2.4552e+05 ;    C53 - O42
  1028  1029   1   9.7300e-02   4.7154e+05 ;    O41 - H87
  1030  1031   1   9.7300e-02   4.7154e+05 ;    O42 - H88
  1033  1034   1   1.0970e-01   3.1455e+05 ;    C54 - H89
  1033  1035   1   1.0970e-01   3.1455e+05 ;    C54 - H90
  1033  1036   1   1.4230e-01   2.4552e+05 ;    C54 - O44
  1036  1037   1   9.7300e-02   4.7154e+05 ;    O44 - H91
  1038  1039   1   1.4320e-01   2.3832e+05 ;    O45 - C55
  1039  1041   1   1.5380e-01   1.9456e+05 ;    C55 - C57
  1039  1042   1   1.5380e-01   1.9456e+05 ;    C55 - C58
  1039  1048   1   1.0970e-01   3.1455e+05 ;    C55 - H96
  1040  1041   1   1.5380e-01   1.9456e+05 ;    C56 - C57
  1040  1043   1   1.5380e-01   1.9456e+05 ;    C56 - C59
  1040  1045   1   1.0970e-01   3.1455e+05 ;    C56 - H93
  1040  1055   1   1.4230e-01   2.4552e+05 ;    C56 - O48
  1041  1044   1   1.0970e-01   3.1455e+05 ;    C57 - H92
  1041  1057   1   1.4230e-01   2.4552e+05 ;    C57 - O49
  1042  1046   1   1.0970e-01   3.1455e+05 ;    C58 - H94
  1042  1049   1   1.4320e-01   2.3832e+05 ;    C58 - O46
  1042  1050   1   1.5380e-01   1.9456e+05 ;    C58 - C60
  1043  1047   1   1.0960e-01   3.1572e+05 ;    C59 - H95
  1043  1049   1   1.4320e-01   2.3832e+05 ;    C59 - O46
  1043  1059   1   1.4230e-01   2.4552e+05 ;    C59 - O50
  1050  1051   1   1.0970e-01   3.1455e+05 ;    C60 - H97
  1050  1052   1   1.0970e-01   3.1455e+05 ;    C60 - H98
  1050  1053   1   1.4230e-01   2.4552e+05 ;    C60 - O47
  1053  1054   1   9.7300e-02   4.7154e+05 ;    O47 - H99
  1055  1056   1   9.7300e-02   4.7154e+05 ;    O48 - H100
  1057  1058   1   9.7300e-02   4.7154e+05 ;    O49 - H101
  1059  1060   1   9.7300e-02   4.7154e+05 ;    O50 - H102
  1061  1062   1   1.0970e-01   3.1455e+05 ;     H1 - C1
  1061  1069   1   0.1090e+00   3.1455e+05 ;     H1 - H4
  1062  1064   1   1.5380e-01   1.9456e+05 ;     C1 - C3
  1062  1065   1   1.5380e-01   1.9456e+05 ;     C1 - C4
  1062  1068   1   1.0970e-01   3.1455e+05 ;     C1 - H3
  1063  1066   1   1.5380e-01   1.9456e+05 ;     C2 - C5
  1063  1067   1   1.0960e-01   3.1572e+05 ;     C2 - H2
  1063  1076   1   1.4320e-01   2.3832e+05 ;     C2 - O3
  1063  1082   1   1.4320e-01   2.3832e+05 ;     C2 - O5
  1064  1071   1   1.0970e-01   3.1455e+05 ;     C3 - H6
  1064  1076   1   1.4320e-01   2.3832e+05 ;     C3 - O3
  1064  1077   1   1.5380e-01   1.9456e+05 ;     C3 - C6
  1065  1066   1   1.5380e-01   1.9456e+05 ;     C4 - C5
  1065  1069   1   1.0970e-01   3.1455e+05 ;     C4 - H4
  1065  1072   1   1.4230e-01   2.4552e+05 ;     C4 - O1
  1066  1070   1   1.0970e-01   3.1455e+05 ;     C5 - H5
  1066  1074   1   1.4230e-01   2.4552e+05 ;     C5 - O2
  1072  1073   1   9.7300e-02   4.7154e+05 ;     O1 - H7
  1074  1075   1   9.7300e-02   4.7154e+05 ;     O2 - H8
  1077  1078   1   1.0970e-01   3.1455e+05 ;     C6 - H9
  1077  1079   1   1.0970e-01   3.1455e+05 ;     C6 - H10
  1077  1080   1   1.4230e-01   2.4552e+05 ;     C6 - O4
  1080  1081   1   9.7300e-02   4.7154e+05 ;     O4 - H11
  1082  1083   1   1.4320e-01   2.3832e+05 ;     O5 - C7
  1083  1085   1   1.5380e-01   1.9456e+05 ;     C7 - C9
  1083  1086   1   1.5380e-01   1.9456e+05 ;     C7 - C10
  1083  1092   1   1.0970e-01   3.1455e+05 ;     C7 - H16
  1084  1085   1   1.5380e-01   1.9456e+05 ;     C8 - C9
  1084  1087   1   1.5380e-01   1.9456e+05 ;     C8 - C11
  1084  1089   1   1.0970e-01   3.1455e+05 ;     C8 - H13
  1084  1099   1   1.4230e-01   2.4552e+05 ;     C8 - O8
  1085  1088   1   1.0970e-01   3.1455e+05 ;     C9 - H12
  1085  1101   1   1.4230e-01   2.4552e+05 ;     C9 - O9
  1086  1090   1   1.0970e-01   3.1455e+05 ;    C10 - H14
  1086  1093   1   1.4320e-01   2.3832e+05 ;    C10 - O6
  1086  1094   1   1.5380e-01   1.9456e+05 ;    C10 - C12
  1087  1091   1   1.0960e-01   3.1572e+05 ;    C11 - H15
  1087  1093   1   1.4320e-01   2.3832e+05 ;    C11 - O6
  1087  1103   1   1.4320e-01   2.3832e+05 ;    C11 - O10
  1094  1095   1   1.0970e-01   3.1455e+05 ;    C12 - H17
  1094  1096   1   1.0970e-01   3.1455e+05 ;    C12 - H18
  1094  1097   1   1.4230e-01   2.4552e+05 ;    C12 - O7
  1097  1098   1   9.7300e-02   4.7154e+05 ;     O7 - H19
  1099  1100   1   9.7300e-02   4.7154e+05 ;     O8 - H20
  1101  1102   1   9.7300e-02   4.7154e+05 ;     O9 - H21
  1103  1104   1   1.4320e-01   2.3832e+05 ;    O10 - C13
  1104  1106   1   1.5380e-01   1.9456e+05 ;    C13 - C15
  1104  1107   1   1.5380e-01   1.9456e+05 ;    C13 - C16
  1104  1110   1   1.0970e-01   3.1455e+05 ;    C13 - H23
  1105  1108   1   1.5380e-01   1.9456e+05 ;    C14 - C17
  1105  1109   1   1.0960e-01   3.1572e+05 ;    C14 - H22
  1105  1118   1   1.4320e-01   2.3832e+05 ;    C14 - O13
  1105  1124   1   1.4320e-01   2.3832e+05 ;    C14 - O15
  1106  1113   1   1.0970e-01   3.1455e+05 ;    C15 - H26
  1106  1118   1   1.4320e-01   2.3832e+05 ;    C15 - O13
  1106  1119   1   1.5380e-01   1.9456e+05 ;    C15 - C18
  1107  1108   1   1.5380e-01   1.9456e+05 ;    C16 - C17
  1107  1111   1   1.0970e-01   3.1455e+05 ;    C16 - H24
  1107  1114   1   1.4230e-01   2.4552e+05 ;    C16 - O11
  1108  1112   1   1.0970e-01   3.1455e+05 ;    C17 - H25
  1108  1116   1   1.4230e-01   2.4552e+05 ;    C17 - O12
  1114  1115   1   9.7300e-02   4.7154e+05 ;    O11 - H27
  1116  1117   1   9.7300e-02   4.7154e+05 ;    O12 - H28
  1119  1120   1   1.0970e-01   3.1455e+05 ;    C18 - H29
  1119  1121   1   1.0970e-01   3.1455e+05 ;    C18 - H30
  1119  1122   1   1.4230e-01   2.4552e+05 ;    C18 - O14
  1122  1123   1   9.7300e-02   4.7154e+05 ;    O14 - H31
  1124  1125   1   1.4320e-01   2.3832e+05 ;    O15 - C19
  1125  1127   1   1.5380e-01   1.9456e+05 ;    C19 - C21
  1125  1128   1   1.5380e-01   1.9456e+05 ;    C19 - C22
  1125  1134   1   1.0970e-01   3.1455e+05 ;    C19 - H36
  1126  1127   1   1.5380e-01   1.9456e+05 ;    C20 - C21
  1126  1129   1   1.5380e-01   1.9456e+05 ;    C20 - C23
  1126  1131   1   1.0970e-01   3.1455e+05 ;    C20 - H33
  1126  1141   1   1.4230e-01   2.4552e+05 ;    C20 - O18
  1127  1130   1   1.0970e-01   3.1455e+05 ;    C21 - H32
  1127  1143   1   1.4230e-01   2.4552e+05 ;    C21 - O19
  1128  1132   1   1.0970e-01   3.1455e+05 ;    C22 - H34
  1128  1135   1   1.4320e-01   2.3832e+05 ;    C22 - O16
  1128  1136   1   1.5380e-01   1.9456e+05 ;    C22 - C24
  1129  1133   1   1.0960e-01   3.1572e+05 ;    C23 - H35
  1129  1135   1   1.4320e-01   2.3832e+05 ;    C23 - O16
  1129  1145   1   1.4320e-01   2.3832e+05 ;    C23 - O20
  1136  1137   1   1.0970e-01   3.1455e+05 ;    C24 - H37
  1136  1138   1   1.0970e-01   3.1455e+05 ;    C24 - H38
  1136  1139   1   1.4230e-01   2.4552e+05 ;    C24 - O17
  1139  1140   1   9.7300e-02   4.7154e+05 ;    O17 - H39
  1141  1142   1   9.7300e-02   4.7154e+05 ;    O18 - H40
  1143  1144   1   9.7300e-02   4.7154e+05 ;    O19 - H41
  1145  1146   1   1.4320e-01   2.3832e+05 ;    O20 - C25
  1146  1148   1   1.5380e-01   1.9456e+05 ;    C25 - C27
  1146  1149   1   1.5380e-01   1.9456e+05 ;    C25 - C28
  1146  1152   1   1.0970e-01   3.1455e+05 ;    C25 - H43
  1147  1150   1   1.5380e-01   1.9456e+05 ;    C26 - C29
  1147  1151   1   1.0960e-01   3.1572e+05 ;    C26 - H42
  1147  1160   1   1.4320e-01   2.3832e+05 ;    C26 - O23
  1147  1166   1   1.4320e-01   2.3832e+05 ;    C26 - O25
  1148  1155   1   1.0970e-01   3.1455e+05 ;    C27 - H46
  1148  1160   1   1.4320e-01   2.3832e+05 ;    C27 - O23
  1148  1161   1   1.5380e-01   1.9456e+05 ;    C27 - C30
  1149  1150   1   1.5380e-01   1.9456e+05 ;    C28 - C29
  1149  1153   1   1.0970e-01   3.1455e+05 ;    C28 - H44
  1149  1156   1   1.4230e-01   2.4552e+05 ;    C28 - O21
  1150  1154   1   1.0970e-01   3.1455e+05 ;    C29 - H45
  1150  1158   1   1.4230e-01   2.4552e+05 ;    C29 - O22
  1156  1157   1   9.7300e-02   4.7154e+05 ;    O21 - H47
  1158  1159   1   9.7300e-02   4.7154e+05 ;    O22 - H48
  1161  1162   1   1.0970e-01   3.1455e+05 ;    C30 - H49
  1161  1163   1   1.0970e-01   3.1455e+05 ;    C30 - H50
  1161  1164   1   1.4230e-01   2.4552e+05 ;    C30 - O24
  1164  1165   1   9.7300e-02   4.7154e+05 ;    O24 - H51
  1166  1167   1   1.4320e-01   2.3832e+05 ;    O25 - C31
  1167  1169   1   1.5380e-01   1.9456e+05 ;    C31 - C33
  1167  1170   1   1.5380e-01   1.9456e+05 ;    C31 - C34
  1167  1176   1   1.0970e-01   3.1455e+05 ;    C31 - H56
  1168  1169   1   1.5380e-01   1.9456e+05 ;    C32 - C33
  1168  1171   1   1.5380e-01   1.9456e+05 ;    C32 - C35
  1168  1173   1   1.0970e-01   3.1455e+05 ;    C32 - H53
  1168  1183   1   1.4230e-01   2.4552e+05 ;    C32 - O28
  1169  1172   1   1.0970e-01   3.1455e+05 ;    C33 - H52
  1169  1185   1   1.4230e-01   2.4552e+05 ;    C33 - O29
  1170  1174   1   1.0970e-01   3.1455e+05 ;    C34 - H54
  1170  1177   1   1.4320e-01   2.3832e+05 ;    C34 - O26
  1170  1178   1   1.5380e-01   1.9456e+05 ;    C34 - C36
  1171  1175   1   1.0960e-01   3.1572e+05 ;    C35 - H55
  1171  1177   1   1.4320e-01   2.3832e+05 ;    C35 - O26
  1171  1187   1   1.4320e-01   2.3832e+05 ;    C35 - O30
  1178  1179   1   1.0970e-01   3.1455e+05 ;    C36 - H57
  1178  1180   1   1.0970e-01   3.1455e+05 ;    C36 - H58
  1178  1181   1   1.4230e-01   2.4552e+05 ;    C36 - O27
  1181  1182   1   9.7300e-02   4.7154e+05 ;    O27 - H59
  1183  1184   1   9.7300e-02   4.7154e+05 ;    O28 - H60
  1185  1186   1   9.7300e-02   4.7154e+05 ;    O29 - H61
  1187  1188   1   1.4320e-01   2.3832e+05 ;    O30 - C37
  1188  1190   1   1.5380e-01   1.9456e+05 ;    C37 - C39
  1188  1191   1   1.5380e-01   1.9456e+05 ;    C37 - C40
  1188  1194   1   1.0970e-01   3.1455e+05 ;    C37 - H63
  1189  1192   1   1.5380e-01   1.9456e+05 ;    C38 - C41
  1189  1193   1   1.0960e-01   3.1572e+05 ;    C38 - H62
  1189  1202   1   1.4320e-01   2.3832e+05 ;    C38 - O33
  1189  1208   1   1.4320e-01   2.3832e+05 ;    C38 - O35
  1190  1197   1   1.0970e-01   3.1455e+05 ;    C39 - H66
  1190  1202   1   1.4320e-01   2.3832e+05 ;    C39 - O33
  1190  1203   1   1.5380e-01   1.9456e+05 ;    C39 - C42
  1191  1192   1   1.5380e-01   1.9456e+05 ;    C40 - C41
  1191  1195   1   1.0970e-01   3.1455e+05 ;    C40 - H64
  1191  1198   1   1.4230e-01   2.4552e+05 ;    C40 - O31
  1192  1196   1   1.0970e-01   3.1455e+05 ;    C41 - H65
  1192  1200   1   1.4230e-01   2.4552e+05 ;    C41 - O32
  1198  1199   1   9.7300e-02   4.7154e+05 ;    O31 - H67
  1200  1201   1   9.7300e-02   4.7154e+05 ;    O32 - H68
  1203  1204   1   1.0970e-01   3.1455e+05 ;    C42 - H69
  1203  1205   1   1.0970e-01   3.1455e+05 ;    C42 - H70
  1203  1206   1   1.4230e-01   2.4552e+05 ;    C42 - O34
  1206  1207   1   9.7300e-02   4.7154e+05 ;    O34 - H71
  1208  1209   1   1.4320e-01   2.3832e+05 ;    O35 - C43
  1209  1211   1   1.5380e-01   1.9456e+05 ;    C43 - C45
  1209  1212   1   1.5380e-01   1.9456e+05 ;    C43 - C46
  1209  1218   1   1.0970e-01   3.1455e+05 ;    C43 - H76
  1210  1211   1   1.5380e-01   1.9456e+05 ;    C44 - C45
  1210  1213   1   1.5380e-01   1.9456e+05 ;    C44 - C47
  1210  1215   1   1.0970e-01   3.1455e+05 ;    C44 - H73
  1210  1225   1   1.4230e-01   2.4552e+05 ;    C44 - O38
  1211  1214   1   1.0970e-01   3.1455e+05 ;    C45 - H72
  1211  1227   1   1.4230e-01   2.4552e+05 ;    C45 - O39
  1212  1216   1   1.0970e-01   3.1455e+05 ;    C46 - H74
  1212  1219   1   1.4320e-01   2.3832e+05 ;    C46 - O36
  1212  1220   1   1.5380e-01   1.9456e+05 ;    C46 - C48
  1213  1217   1   1.0960e-01   3.1572e+05 ;    C47 - H75
  1213  1219   1   1.4320e-01   2.3832e+05 ;    C47 - O36
  1213  1229   1   1.4320e-01   2.3832e+05 ;    C47 - O40
  1220  1221   1   1.0970e-01   3.1455e+05 ;    C48 - H77
  1220  1222   1   1.0970e-01   3.1455e+05 ;    C48 - H78
  1220  1223   1   1.4230e-01   2.4552e+05 ;    C48 - O37
  1223  1224   1   9.7300e-02   4.7154e+05 ;    O37 - H79
  1225  1226   1   9.7300e-02   4.7154e+05 ;    O38 - H80
  1227  1228   1   9.7300e-02   4.7154e+05 ;    O39 - H81
  1229  1230   1   1.4320e-01   2.3832e+05 ;    O40 - C49
  1230  1232   1   1.5380e-01   1.9456e+05 ;    C49 - C51
  1230  1233   1   1.5380e-01   1.9456e+05 ;    C49 - C52
  1230  1236   1   1.0970e-01   3.1455e+05 ;    C49 - H83
  1231  1234   1   1.5380e-01   1.9456e+05 ;    C50 - C53
  1231  1235   1   1.0960e-01   3.1572e+05 ;    C50 - H82
  1231  1244   1   1.4320e-01   2.3832e+05 ;    C50 - O43
  1231  1250   1   1.4320e-01   2.3832e+05 ;    C50 - O45
  1232  1239   1   1.0970e-01   3.1455e+05 ;    C51 - H86
  1232  1244   1   1.4320e-01   2.3832e+05 ;    C51 - O43
  1232  1245   1   1.5380e-01   1.9456e+05 ;    C51 - C54
  1233  1234   1   1.5380e-01   1.9456e+05 ;    C52 - C53
  1233  1237   1   1.0970e-01   3.1455e+05 ;    C52 - H84
  1233  1240   1   1.4230e-01   2.4552e+05 ;    C52 - O41
  1234  1238   1   1.0970e-01   3.1455e+05 ;    C53 - H85
  1234  1242   1   1.4230e-01   2.4552e+05 ;    C53 - O42
  1240  1241   1   9.7300e-02   4.7154e+05 ;    O41 - H87
  1242  1243   1   9.7300e-02   4.7154e+05 ;    O42 - H88
  1245  1246   1   1.0970e-01   3.1455e+05 ;    C54 - H89
  1245  1247   1   1.0970e-01   3.1455e+05 ;    C54 - H90
  1245  1248   1   1.4230e-01   2.4552e+05 ;    C54 - O44
  1248  1249   1   9.7300e-02   4.7154e+05 ;    O44 - H91
  1250  1251   1   1.4320e-01   2.3832e+05 ;    O45 - C55
  1251  1253   1   1.5380e-01   1.9456e+05 ;    C55 - C57
  1251  1254   1   1.5380e-01   1.9456e+05 ;    C55 - C58
  1251  1260   1   1.0970e-01   3.1455e+05 ;    C55 - H96
  1252  1253   1   1.5380e-01   1.9456e+05 ;    C56 - C57
  1252  1255   1   1.5380e-01   1.9456e+05 ;    C56 - C59
  1252  1257   1   1.0970e-01   3.1455e+05 ;    C56 - H93
  1252  1267   1   1.4230e-01   2.4552e+05 ;    C56 - O48
  1253  1256   1   1.0970e-01   3.1455e+05 ;    C57 - H92
  1253  1269   1   1.4230e-01   2.4552e+05 ;    C57 - O49
  1254  1258   1   1.0970e-01   3.1455e+05 ;    C58 - H94
  1254  1261   1   1.4320e-01   2.3832e+05 ;    C58 - O46
  1254  1262   1   1.5380e-01   1.9456e+05 ;    C58 - C60
  1255  1259   1   1.0960e-01   3.1572e+05 ;    C59 - H95
  1255  1261   1   1.4320e-01   2.3832e+05 ;    C59 - O46
  1255  1271   1   1.4230e-01   2.4552e+05 ;    C59 - O50
  1262  1263   1   1.0970e-01   3.1455e+05 ;    C60 - H97
  1262  1264   1   1.0970e-01   3.1455e+05 ;    C60 - H98
  1262  1265   1   1.4230e-01   2.4552e+05 ;    C60 - O47
  1265  1266   1   9.7300e-02   4.7154e+05 ;    O47 - H99
  1267  1268   1   9.7300e-02   4.7154e+05 ;    O48 - H100
  1269  1270   1   9.7300e-02   4.7154e+05 ;    O49 - H101
  1271  1272   1   9.7300e-02   4.7154e+05 ;    O50 - H102
  1273  1274   1   1.0970e-01   3.1455e+05 ;     H1 - C1
  1273  1281   1   0.1090e+00   3.1455e+05 ;     H1 - H4
  1274  1276   1   1.5380e-01   1.9456e+05 ;     C1 - C3
  1274  1277   1   1.5380e-01   1.9456e+05 ;     C1 - C4
  1274  1280   1   1.0970e-01   3.1455e+05 ;     C1 - H3
  1275  1278   1   1.5380e-01   1.9456e+05 ;     C2 - C5
  1275  1279   1   1.0960e-01   3.1572e+05 ;     C2 - H2
  1275  1288   1   1.4320e-01   2.3832e+05 ;     C2 - O3
  1275  1294   1   1.4320e-01   2.3832e+05 ;     C2 - O5
  1276  1283   1   1.0970e-01   3.1455e+05 ;     C3 - H6
  1276  1288   1   1.4320e-01   2.3832e+05 ;     C3 - O3
  1276  1289   1   1.5380e-01   1.9456e+05 ;     C3 - C6
  1277  1278   1   1.5380e-01   1.9456e+05 ;     C4 - C5
  1277  1281   1   1.0970e-01   3.1455e+05 ;     C4 - H4
  1277  1284   1   1.4230e-01   2.4552e+05 ;     C4 - O1
  1278  1282   1   1.0970e-01   3.1455e+05 ;     C5 - H5
  1278  1286   1   1.4230e-01   2.4552e+05 ;     C5 - O2
  1284  1285   1   9.7300e-02   4.7154e+05 ;     O1 - H7
  1286  1287   1   9.7300e-02   4.7154e+05 ;     O2 - H8
  1289  1290   1   1.0970e-01   3.1455e+05 ;     C6 - H9
  1289  1291   1   1.0970e-01   3.1455e+05 ;     C6 - H10
  1289  1292   1   1.4230e-01   2.4552e+05 ;     C6 - O4
  1292  1293   1   9.7300e-02   4.7154e+05 ;     O4 - H11
  1294  1295   1   1.4320e-01   2.3832e+05 ;     O5 - C7
  1295  1297   1   1.5380e-01   1.9456e+05 ;     C7 - C9
  1295  1298   1   1.5380e-01   1.9456e+05 ;     C7 - C10
  1295  1304   1   1.0970e-01   3.1455e+05 ;     C7 - H16
  1296  1297   1   1.5380e-01   1.9456e+05 ;     C8 - C9
  1296  1299   1   1.5380e-01   1.9456e+05 ;     C8 - C11
  1296  1301   1   1.0970e-01   3.1455e+05 ;     C8 - H13
  1296  1311   1   1.4230e-01   2.4552e+05 ;     C8 - O8
  1297  1300   1   1.0970e-01   3.1455e+05 ;     C9 - H12
  1297  1313   1   1.4230e-01   2.4552e+05 ;     C9 - O9
  1298  1302   1   1.0970e-01   3.1455e+05 ;    C10 - H14
  1298  1305   1   1.4320e-01   2.3832e+05 ;    C10 - O6
  1298  1306   1   1.5380e-01   1.9456e+05 ;    C10 - C12
  1299  1303   1   1.0960e-01   3.1572e+05 ;    C11 - H15
  1299  1305   1   1.4320e-01   2.3832e+05 ;    C11 - O6
  1299  1315   1   1.4320e-01   2.3832e+05 ;    C11 - O10
  1306  1307   1   1.0970e-01   3.1455e+05 ;    C12 - H17
  1306  1308   1   1.0970e-01   3.1455e+05 ;    C12 - H18
  1306  1309   1   1.4230e-01   2.4552e+05 ;    C12 - O7
  1309  1310   1   9.7300e-02   4.7154e+05 ;     O7 - H19
  1311  1312   1   9.7300e-02   4.7154e+05 ;     O8 - H20
  1313  1314   1   9.7300e-02   4.7154e+05 ;     O9 - H21
  1315  1316   1   1.4320e-01   2.3832e+05 ;    O10 - C13
  1316  1318   1   1.5380e-01   1.9456e+05 ;    C13 - C15
  1316  1319   1   1.5380e-01   1.9456e+05 ;    C13 - C16
  1316  1322   1   1.0970e-01   3.1455e+05 ;    C13 - H23
  1317  1320   1   1.5380e-01   1.9456e+05 ;    C14 - C17
  1317  1321   1   1.0960e-01   3.1572e+05 ;    C14 - H22
  1317  1330   1   1.4320e-01   2.3832e+05 ;    C14 - O13
  1317  1336   1   1.4320e-01   2.3832e+05 ;    C14 - O15
  1318  1325   1   1.0970e-01   3.1455e+05 ;    C15 - H26
  1318  1330   1   1.4320e-01   2.3832e+05 ;    C15 - O13
  1318  1331   1   1.5380e-01   1.9456e+05 ;    C15 - C18
  1319  1320   1   1.5380e-01   1.9456e+05 ;    C16 - C17
  1319  1323   1   1.0970e-01   3.1455e+05 ;    C16 - H24
  1319  1326   1   1.4230e-01   2.4552e+05 ;    C16 - O11
  1320  1324   1   1.0970e-01   3.1455e+05 ;    C17 - H25
  1320  1328   1   1.4230e-01   2.4552e+05 ;    C17 - O12
  1326  1327   1   9.7300e-02   4.7154e+05 ;    O11 - H27
  1328  1329   1   9.7300e-02   4.7154e+05 ;    O12 - H28
  1331  1332   1   1.0970e-01   3.1455e+05 ;    C18 - H29
  1331  1333   1   1.0970e-01   3.1455e+05 ;    C18 - H30
  1331  1334   1   1.4230e-01   2.4552e+05 ;    C18 - O14
  1334  1335   1   9.7300e-02   4.7154e+05 ;    O14 - H31
  1336  1337   1   1.4320e-01   2.3832e+05 ;    O15 - C19
  1337  1339   1   1.5380e-01   1.9456e+05 ;    C19 - C21
  1337  1340   1   1.5380e-01   1.9456e+05 ;    C19 - C22
  1337  1346   1   1.0970e-01   3.1455e+05 ;    C19 - H36
  1338  1339   1   1.5380e-01   1.9456e+05 ;    C20 - C21
  1338  1341   1   1.5380e-01   1.9456e+05 ;    C20 - C23
  1338  1343   1   1.0970e-01   3.1455e+05 ;    C20 - H33
  1338  1353   1   1.4230e-01   2.4552e+05 ;    C20 - O18
  1339  1342   1   1.0970e-01   3.1455e+05 ;    C21 - H32
  1339  1355   1   1.4230e-01   2.4552e+05 ;    C21 - O19
  1340  1344   1   1.0970e-01   3.1455e+05 ;    C22 - H34
  1340  1347   1   1.4320e-01   2.3832e+05 ;    C22 - O16
  1340  1348   1   1.5380e-01   1.9456e+05 ;    C22 - C24
  1341  1345   1   1.0960e-01   3.1572e+05 ;    C23 - H35
  1341  1347   1   1.4320e-01   2.3832e+05 ;    C23 - O16
  1341  1357   1   1.4320e-01   2.3832e+05 ;    C23 - O20
  1348  1349   1   1.0970e-01   3.1455e+05 ;    C24 - H37
  1348  1350   1   1.0970e-01   3.1455e+05 ;    C24 - H38
  1348  1351   1   1.4230e-01   2.4552e+05 ;    C24 - O17
  1351  1352   1   9.7300e-02   4.7154e+05 ;    O17 - H39
  1353  1354   1   9.7300e-02   4.7154e+05 ;    O18 - H40
  1355  1356   1   9.7300e-02   4.7154e+05 ;    O19 - H41
  1357  1358   1   1.4320e-01   2.3832e+05 ;    O20 - C25
  1358  1360   1   1.5380e-01   1.9456e+05 ;    C25 - C27
  1358  1361   1   1.5380e-01   1.9456e+05 ;    C25 - C28
  1358  1364   1   1.0970e-01   3.1455e+05 ;    C25 - H43
  1359  1362   1   1.5380e-01   1.9456e+05 ;    C26 - C29
  1359  1363   1   1.0960e-01   3.1572e+05 ;    C26 - H42
  1359  1372   1   1.4320e-01   2.3832e+05 ;    C26 - O23
  1359  1378   1   1.4320e-01   2.3832e+05 ;    C26 - O25
  1360  1367   1   1.0970e-01   3.1455e+05 ;    C27 - H46
  1360  1372   1   1.4320e-01   2.3832e+05 ;    C27 - O23
  1360  1373   1   1.5380e-01   1.9456e+05 ;    C27 - C30
  1361  1362   1   1.5380e-01   1.9456e+05 ;    C28 - C29
  1361  1365   1   1.0970e-01   3.1455e+05 ;    C28 - H44
  1361  1368   1   1.4230e-01   2.4552e+05 ;    C28 - O21
  1362  1366   1   1.0970e-01   3.1455e+05 ;    C29 - H45
  1362  1370   1   1.4230e-01   2.4552e+05 ;    C29 - O22
  1368  1369   1   9.7300e-02   4.7154e+05 ;    O21 - H47
  1370  1371   1   9.7300e-02   4.7154e+05 ;    O22 - H48
  1373  1374   1   1.0970e-01   3.1455e+05 ;    C30 - H49
  1373  1375   1   1.0970e-01   3.1455e+05 ;    C30 - H50
  1373  1376   1   1.4230e-01   2.4552e+05 ;    C30 - O24
  1376  1377   1   9.7300e-02   4.7154e+05 ;    O24 - H51
  1378  1379   1   1.4320e-01   2.3832e+05 ;    O25 - C31
  1379  1381   1   1.5380e-01   1.9456e+05 ;    C31 - C33
  1379  1382   1   1.5380e-01   1.9456e+05 ;    C31 - C34
  1379  1388   1   1.0970e-01   3.1455e+05 ;    C31 - H56
  1380  1381   1   1.5380e-01   1.9456e+05 ;    C32 - C33
  1380  1383   1   1.5380e-01   1.9456e+05 ;    C32 - C35
  1380  1385   1   1.0970e-01   3.1455e+05 ;    C32 - H53
  1380  1395   1   1.4230e-01   2.4552e+05 ;    C32 - O28
  1381  1384   1   1.0970e-01   3.1455e+05 ;    C33 - H52
  1381  1397   1   1.4230e-01   2.4552e+05 ;    C33 - O29
  1382  1386   1   1.0970e-01   3.1455e+05 ;    C34 - H54
  1382  1389   1   1.4320e-01   2.3832e+05 ;    C34 - O26
  1382  1390   1   1.5380e-01   1.9456e+05 ;    C34 - C36
  1383  1387   1   1.0960e-01   3.1572e+05 ;    C35 - H55
  1383  1389   1   1.4320e-01   2.3832e+05 ;    C35 - O26
  1383  1399   1   1.4320e-01   2.3832e+05 ;    C35 - O30
  1390  1391   1   1.0970e-01   3.1455e+05 ;    C36 - H57
  1390  1392   1   1.0970e-01   3.1455e+05 ;    C36 - H58
  1390  1393   1   1.4230e-01   2.4552e+05 ;    C36 - O27
  1393  1394   1   9.7300e-02   4.7154e+05 ;    O27 - H59
  1395  1396   1   9.7300e-02   4.7154e+05 ;    O28 - H60
  1397  1398   1   9.7300e-02   4.7154e+05 ;    O29 - H61
  1399  1400   1   1.4320e-01   2.3832e+05 ;    O30 - C37
  1400  1402   1   1.5380e-01   1.9456e+05 ;    C37 - C39
  1400  1403   1   1.5380e-01   1.9456e+05 ;    C37 - C40
  1400  1406   1   1.0970e-01   3.1455e+05 ;    C37 - H63
  1401  1404   1   1.5380e-01   1.9456e+05 ;    C38 - C41
  1401  1405   1   1.0960e-01   3.1572e+05 ;    C38 - H62
  1401  1414   1   1.4320e-01   2.3832e+05 ;    C38 - O33
  1401  1420   1   1.4320e-01   2.3832e+05 ;    C38 - O35
  1402  1409   1   1.0970e-01   3.1455e+05 ;    C39 - H66
  1402  1414   1   1.4320e-01   2.3832e+05 ;    C39 - O33
  1402  1415   1   1.5380e-01   1.9456e+05 ;    C39 - C42
  1403  1404   1   1.5380e-01   1.9456e+05 ;    C40 - C41
  1403  1407   1   1.0970e-01   3.1455e+05 ;    C40 - H64
  1403  1410   1   1.4230e-01   2.4552e+05 ;    C40 - O31
  1404  1408   1   1.0970e-01   3.1455e+05 ;    C41 - H65
  1404  1412   1   1.4230e-01   2.4552e+05 ;    C41 - O32
  1410  1411   1   9.7300e-02   4.7154e+05 ;    O31 - H67
  1412  1413   1   9.7300e-02   4.7154e+05 ;    O32 - H68
  1415  1416   1   1.0970e-01   3.1455e+05 ;    C42 - H69
  1415  1417   1   1.0970e-01   3.1455e+05 ;    C42 - H70
  1415  1418   1   1.4230e-01   2.4552e+05 ;    C42 - O34
  1418  1419   1   9.7300e-02   4.7154e+05 ;    O34 - H71
  1420  1421   1   1.4320e-01   2.3832e+05 ;    O35 - C43
  1421  1423   1   1.5380e-01   1.9456e+05 ;    C43 - C45
  1421  1424   1   1.5380e-01   1.9456e+05 ;    C43 - C46
  1421  1430   1   1.0970e-01   3.1455e+05 ;    C43 - H76
  1422  1423   1   1.5380e-01   1.9456e+05 ;    C44 - C45
  1422  1425   1   1.5380e-01   1.9456e+05 ;    C44 - C47
  1422  1427   1   1.0970e-01   3.1455e+05 ;    C44 - H73
  1422  1437   1   1.4230e-01   2.4552e+05 ;    C44 - O38
  1423  1426   1   1.0970e-01   3.1455e+05 ;    C45 - H72
  1423  1439   1   1.4230e-01   2.4552e+05 ;    C45 - O39
  1424  1428   1   1.0970e-01   3.1455e+05 ;    C46 - H74
  1424  1431   1   1.4320e-01   2.3832e+05 ;    C46 - O36
  1424  1432   1   1.5380e-01   1.9456e+05 ;    C46 - C48
  1425  1429   1   1.0960e-01   3.1572e+05 ;    C47 - H75
  1425  1431   1   1.4320e-01   2.3832e+05 ;    C47 - O36
  1425  1441   1   1.4320e-01   2.3832e+05 ;    C47 - O40
  1432  1433   1   1.0970e-01   3.1455e+05 ;    C48 - H77
  1432  1434   1   1.0970e-01   3.1455e+05 ;    C48 - H78
  1432  1435   1   1.4230e-01   2.4552e+05 ;    C48 - O37
  1435  1436   1   9.7300e-02   4.7154e+05 ;    O37 - H79
  1437  1438   1   9.7300e-02   4.7154e+05 ;    O38 - H80
  1439  1440   1   9.7300e-02   4.7154e+05 ;    O39 - H81
  1441  1442   1   1.4320e-01   2.3832e+05 ;    O40 - C49
  1442  1444   1   1.5380e-01   1.9456e+05 ;    C49 - C51
  1442  1445   1   1.5380e-01   1.9456e+05 ;    C49 - C52
  1442  1448   1   1.0970e-01   3.1455e+05 ;    C49 - H83
  1443  1446   1   1.5380e-01   1.9456e+05 ;    C50 - C53
  1443  1447   1   1.0960e-01   3.1572e+05 ;    C50 - H82
  1443  1456   1   1.4320e-01   2.3832e+05 ;    C50 - O43
  1443  1462   1   1.4320e-01   2.3832e+05 ;    C50 - O45
  1444  1451   1   1.0970e-01   3.1455e+05 ;    C51 - H86
  1444  1456   1   1.4320e-01   2.3832e+05 ;    C51 - O43
  1444  1457   1   1.5380e-01   1.9456e+05 ;    C51 - C54
  1445  1446   1   1.5380e-01   1.9456e+05 ;    C52 - C53
  1445  1449   1   1.0970e-01   3.1455e+05 ;    C52 - H84
  1445  1452   1   1.4230e-01   2.4552e+05 ;    C52 - O41
  1446  1450   1   1.0970e-01   3.1455e+05 ;    C53 - H85
  1446  1454   1   1.4230e-01   2.4552e+05 ;    C53 - O42
  1452  1453   1   9.7300e-02   4.7154e+05 ;    O41 - H87
  1454  1455   1   9.7300e-02   4.7154e+05 ;    O42 - H88
  1457  1458   1   1.0970e-01   3.1455e+05 ;    C54 - H89
  1457  1459   1   1.0970e-01   3.1455e+05 ;    C54 - H90
  1457  1460   1   1.4230e-01   2.4552e+05 ;    C54 - O44
  1460  1461   1   9.7300e-02   4.7154e+05 ;    O44 - H91
  1462  1463   1   1.4320e-01   2.3832e+05 ;    O45 - C55
  1463  1465   1   1.5380e-01   1.9456e+05 ;    C55 - C57
  1463  1466   1   1.5380e-01   1.9456e+05 ;    C55 - C58
  1463  1472   1   1.0970e-01   3.1455e+05 ;    C55 - H96
  1464  1465   1   1.5380e-01   1.9456e+05 ;    C56 - C57
  1464  1467   1   1.5380e-01   1.9456e+05 ;    C56 - C59
  1464  1469   1   1.0970e-01   3.1455e+05 ;    C56 - H93
  1464  1479   1   1.4230e-01   2.4552e+05 ;    C56 - O48
  1465  1468   1   1.0970e-01   3.1455e+05 ;    C57 - H92
  1465  1481   1   1.4230e-01   2.4552e+05 ;    C57 - O49
  1466  1470   1   1.0970e-01   3.1455e+05 ;    C58 - H94
  1466  1473   1   1.4320e-01   2.3832e+05 ;    C58 - O46
  1466  1474   1   1.5380e-01   1.9456e+05 ;    C58 - C60
  1467  1471   1   1.0960e-01   3.1572e+05 ;    C59 - H95
  1467  1473   1   1.4320e-01   2.3832e+05 ;    C59 - O46
  1467  1483   1   1.4230e-01   2.4552e+05 ;    C59 - O50
  1474  1475   1   1.0970e-01   3.1455e+05 ;    C60 - H97
  1474  1476   1   1.0970e-01   3.1455e+05 ;    C60 - H98
  1474  1477   1   1.4230e-01   2.4552e+05 ;    C60 - O47
  1477  1478   1   9.7300e-02   4.7154e+05 ;    O47 - H99
  1479  1480   1   9.7300e-02   4.7154e+05 ;    O48 - H100
  1481  1482   1   9.7300e-02   4.7154e+05 ;    O49 - H101
  1483  1484   1   9.7300e-02   4.7154e+05 ;    O50 - H102
  1485  1486   1   1.0970e-01   3.1455e+05 ;     H1 - C1
  1485  1493   1   0.1090e+00   3.1455e+05 ;     H1 - H4
  1486  1488   1   1.5380e-01   1.9456e+05 ;     C1 - C3
  1486  1489   1   1.5380e-01   1.9456e+05 ;     C1 - C4
  1486  1492   1   1.0970e-01   3.1455e+05 ;     C1 - H3
  1487  1490   1   1.5380e-01   1.9456e+05 ;     C2 - C5
  1487  1491   1   1.0960e-01   3.1572e+05 ;     C2 - H2
  1487  1500   1   1.4320e-01   2.3832e+05 ;     C2 - O3
  1487  1506   1   1.4320e-01   2.3832e+05 ;     C2 - O5
  1488  1495   1   1.0970e-01   3.1455e+05 ;     C3 - H6
  1488  1500   1   1.4320e-01   2.3832e+05 ;     C3 - O3
  1488  1501   1   1.5380e-01   1.9456e+05 ;     C3 - C6
  1489  1490   1   1.5380e-01   1.9456e+05 ;     C4 - C5
  1489  1493   1   1.0970e-01   3.1455e+05 ;     C4 - H4
  1489  1496   1   1.4230e-01   2.4552e+05 ;     C4 - O1
  1490  1494   1   1.0970e-01   3.1455e+05 ;     C5 - H5
  1490  1498   1   1.4230e-01   2.4552e+05 ;     C5 - O2
  1496  1497   1   9.7300e-02   4.7154e+05 ;     O1 - H7
  1498  1499   1   9.7300e-02   4.7154e+05 ;     O2 - H8
  1501  1502   1   1.0970e-01   3.1455e+05 ;     C6 - H9
  1501  1503   1   1.0970e-01   3.1455e+05 ;     C6 - H10
  1501  1504   1   1.4230e-01   2.4552e+05 ;     C6 - O4
  1504  1505   1   9.7300e-02   4.7154e+05 ;     O4 - H11
  1506  1507   1   1.4320e-01   2.3832e+05 ;     O5 - C7
  1507  1509   1   1.5380e-01   1.9456e+05 ;     C7 - C9
  1507  1510   1   1.5380e-01   1.9456e+05 ;     C7 - C10
  1507  1516   1   1.0970e-01   3.1455e+05 ;     C7 - H16
  1508  1509   1   1.5380e-01   1.9456e+05 ;     C8 - C9
  1508  1511   1   1.5380e-01   1.9456e+05 ;     C8 - C11
  1508  1513   1   1.0970e-01   3.1455e+05 ;     C8 - H13
  1508  1523   1   1.4230e-01   2.4552e+05 ;     C8 - O8
  1509  1512   1   1.0970e-01   3.1455e+05 ;     C9 - H12
  1509  1525   1   1.4230e-01   2.4552e+05 ;     C9 - O9
  1510  1514   1   1.0970e-01   3.1455e+05 ;    C10 - H14
  1510  1517   1   1.4320e-01   2.3832e+05 ;    C10 - O6
  1510  1518   1   1.5380e-01   1.9456e+05 ;    C10 - C12
  1511  1515   1   1.0960e-01   3.1572e+05 ;    C11 - H15
  1511  1517   1   1.4320e-01   2.3832e+05 ;    C11 - O6
  1511  1527   1   1.4320e-01   2.3832e+05 ;    C11 - O10
  1518  1519   1   1.0970e-01   3.1455e+05 ;    C12 - H17
  1518  1520   1   1.0970e-01   3.1455e+05 ;    C12 - H18
  1518  1521   1   1.4230e-01   2.4552e+05 ;    C12 - O7
  1521  1522   1   9.7300e-02   4.7154e+05 ;     O7 - H19
  1523  1524   1   9.7300e-02   4.7154e+05 ;     O8 - H20
  1525  1526   1   9.7300e-02   4.7154e+05 ;     O9 - H21
  1527  1528   1   1.4320e-01   2.3832e+05 ;    O10 - C13
  1528  1530   1   1.5380e-01   1.9456e+05 ;    C13 - C15
  1528  1531   1   1.5380e-01   1.9456e+05 ;    C13 - C16
  1528  1534   1   1.0970e-01   3.1455e+05 ;    C13 - H23
  1529  1532   1   1.5380e-01   1.9456e+05 ;    C14 - C17
  1529  1533   1   1.0960e-01   3.1572e+05 ;    C14 - H22
  1529  1542   1   1.4320e-01   2.3832e+05 ;    C14 - O13
  1529  1548   1   1.4320e-01   2.3832e+05 ;    C14 - O15
  1530  1537   1   1.0970e-01   3.1455e+05 ;    C15 - H26
  1530  1542   1   1.4320e-01   2.3832e+05 ;    C15 - O13
  1530  1543   1   1.5380e-01   1.9456e+05 ;    C15 - C18
  1531  1532   1   1.5380e-01   1.9456e+05 ;    C16 - C17
  1531  1535   1   1.0970e-01   3.1455e+05 ;    C16 - H24
  1531  1538   1   1.4230e-01   2.4552e+05 ;    C16 - O11
  1532  1536   1   1.0970e-01   3.1455e+05 ;    C17 - H25
  1532  1540   1   1.4230e-01   2.4552e+05 ;    C17 - O12
  1538  1539   1   9.7300e-02   4.7154e+05 ;    O11 - H27
  1540  1541   1   9.7300e-02   4.7154e+05 ;    O12 - H28
  1543  1544   1   1.0970e-01   3.1455e+05 ;    C18 - H29
  1543  1545   1   1.0970e-01   3.1455e+05 ;    C18 - H30
  1543  1546   1   1.4230e-01   2.4552e+05 ;    C18 - O14
  1546  1547   1   9.7300e-02   4.7154e+05 ;    O14 - H31
  1548  1549   1   1.4320e-01   2.3832e+05 ;    O15 - C19
  1549  1551   1   1.5380e-01   1.9456e+05 ;    C19 - C21
  1549  1552   1   1.5380e-01   1.9456e+05 ;    C19 - C22
  1549  1558   1   1.0970e-01   3.1455e+05 ;    C19 - H36
  1550  1551   1   1.5380e-01   1.9456e+05 ;    C20 - C21
  1550  1553   1   1.5380e-01   1.9456e+05 ;    C20 - C23
  1550  1555   1   1.0970e-01   3.1455e+05 ;    C20 - H33
  1550  1565   1   1.4230e-01   2.4552e+05 ;    C20 - O18
  1551  1554   1   1.0970e-01   3.1455e+05 ;    C21 - H32
  1551  1567   1   1.4230e-01   2.4552e+05 ;    C21 - O19
  1552  1556   1   1.0970e-01   3.1455e+05 ;    C22 - H34
  1552  1559   1   1.4320e-01   2.3832e+05 ;    C22 - O16
  1552  1560   1   1.5380e-01   1.9456e+05 ;    C22 - C24
  1553  1557   1   1.0960e-01   3.1572e+05 ;    C23 - H35
  1553  1559   1   1.4320e-01   2.3832e+05 ;    C23 - O16
  1553  1569   1   1.4320e-01   2.3832e+05 ;    C23 - O20
  1560  1561   1   1.0970e-01   3.1455e+05 ;    C24 - H37
  1560  1562   1   1.0970e-01   3.1455e+05 ;    C24 - H38
  1560  1563   1   1.4230e-01   2.4552e+05 ;    C24 - O17
  1563  1564   1   9.7300e-02   4.7154e+05 ;    O17 - H39
  1565  1566   1   9.7300e-02   4.7154e+05 ;    O18 - H40
  1567  1568   1   9.7300e-02   4.7154e+05 ;    O19 - H41
  1569  1570   1   1.4320e-01   2.3832e+05 ;    O20 - C25
  1570  1572   1   1.5380e-01   1.9456e+05 ;    C25 - C27
  1570  1573   1   1.5380e-01   1.9456e+05 ;    C25 - C28
  1570  1576   1   1.0970e-01   3.1455e+05 ;    C25 - H43
  1571  1574   1   1.5380e-01   1.9456e+05 ;    C26 - C29
  1571  1575   1   1.0960e-01   3.1572e+05 ;    C26 - H42
  1571  1584   1   1.4320e-01   2.3832e+05 ;    C26 - O23
  1571  1590   1   1.4320e-01   2.3832e+05 ;    C26 - O25
  1572  1579   1   1.0970e-01   3.1455e+05 ;    C27 - H46
  1572  1584   1   1.4320e-01   2.3832e+05 ;    C27 - O23
  1572  1585   1   1.5380e-01   1.9456e+05 ;    C27 - C30
  1573  1574   1   1.5380e-01   1.9456e+05 ;    C28 - C29
  1573  1577   1   1.0970e-01   3.1455e+05 ;    C28 - H44
  1573  1580   1   1.4230e-01   2.4552e+05 ;    C28 - O21
  1574  1578   1   1.0970e-01   3.1455e+05 ;    C29 - H45
  1574  1582   1   1.4230e-01   2.4552e+05 ;    C29 - O22
  1580  1581   1   9.7300e-02   4.7154e+05 ;    O21 - H47
  1582  1583   1   9.7300e-02   4.7154e+05 ;    O22 - H48
  1585  1586   1   1.0970e-01   3.1455e+05 ;    C30 - H49
  1585  1587   1   1.0970e-01   3.1455e+05 ;    C30 - H50
  1585  1588   1   1.4230e-01   2.4552e+05 ;    C30 - O24
  1588  1589   1   9.7300e-02   4.7154e+05 ;    O24 - H51
  1590  1591   1   1.4320e-01   2.3832e+05 ;    O25 - C31
  1591  1593   1   1.5380e-01   1.9456e+05 ;    C31 - C33
  1591  1594   1   1.5380e-01   1.9456e+05 ;    C31 - C34
  1591  1600   1   1.0970e-01   3.1455e+05 ;    C31 - H56
  1592  1593   1   1.5380e-01   1.9456e+05 ;    C32 - C33
  1592  1595   1   1.5380e-01   1.9456e+05 ;    C32 - C35
  1592  1597   1   1.0970e-01   3.1455e+05 ;    C32 - H53
  1592  1607   1   1.4230e-01   2.4552e+05 ;    C32 - O28
  1593  1596   1   1.0970e-01   3.1455e+05 ;    C33 - H52
  1593  1609   1   1.4230e-01   2.4552e+05 ;    C33 - O29
  1594  1598   1   1.0970e-01   3.1455e+05 ;    C34 - H54
  1594  1601   1   1.4320e-01   2.3832e+05 ;    C34 - O26
  1594  1602   1   1.5380e-01   1.9456e+05 ;    C34 - C36
  1595  1599   1   1.0960e-01   3.1572e+05 ;    C35 - H55
  1595  1601   1   1.4320e-01   2.3832e+05 ;    C35 - O26
  1595  1611   1   1.4320e-01   2.3832e+05 ;    C35 - O30
  1602  1603   1   1.0970e-01   3.1455e+05 ;    C36 - H57
  1602  1604   1   1.0970e-01   3.1455e+05 ;    C36 - H58
  1602  1605   1   1.4230e-01   2.4552e+05 ;    C36 - O27
  1605  1606   1   9.7300e-02   4.7154e+05 ;    O27 - H59
  1607  1608   1   9.7300e-02   4.7154e+05 ;    O28 - H60
  1609  1610   1   9.7300e-02   4.7154e+05 ;    O29 - H61
  1611  1612   1   1.4320e-01   2.3832e+05 ;    O30 - C37
  1612  1614   1   1.5380e-01   1.9456e+05 ;    C37 - C39
  1612  1615   1   1.5380e-01   1.9456e+05 ;    C37 - C40
  1612  1618   1   1.0970e-01   3.1455e+05 ;    C37 - H63
  1613  1616   1   1.5380e-01   1.9456e+05 ;    C38 - C41
  1613  1617   1   1.0960e-01   3.1572e+05 ;    C38 - H62
  1613  1626   1   1.4320e-01   2.3832e+05 ;    C38 - O33
  1613  1632   1   1.4320e-01   2.3832e+05 ;    C38 - O35
  1614  1621   1   1.0970e-01   3.1455e+05 ;    C39 - H66
  1614  1626   1   1.4320e-01   2.3832e+05 ;    C39 - O33
  1614  1627   1   1.5380e-01   1.9456e+05 ;    C39 - C42
  1615  1616   1   1.5380e-01   1.9456e+05 ;    C40 - C41
  1615  1619   1   1.0970e-01   3.1455e+05 ;    C40 - H64
  1615  1622   1   1.4230e-01   2.4552e+05 ;    C40 - O31
  1616  1620   1   1.0970e-01   3.1455e+05 ;    C41 - H65
  1616  1624   1   1.4230e-01   2.4552e+05 ;    C41 - O32
  1622  1623   1   9.7300e-02   4.7154e+05 ;    O31 - H67
  1624  1625   1   9.7300e-02   4.7154e+05 ;    O32 - H68
  1627  1628   1   1.0970e-01   3.1455e+05 ;    C42 - H69
  1627  1629   1   1.0970e-01   3.1455e+05 ;    C42 - H70
  1627  1630   1   1.4230e-01   2.4552e+05 ;    C42 - O34
  1630  1631   1   9.7300e-02   4.7154e+05 ;    O34 - H71
  1632  1633   1   1.4320e-01   2.3832e+05 ;    O35 - C43
  1633  1635   1   1.5380e-01   1.9456e+05 ;    C43 - C45
  1633  1636   1   1.5380e-01   1.9456e+05 ;    C43 - C46
  1633  1642   1   1.0970e-01   3.1455e+05 ;    C43 - H76
  1634  1635   1   1.5380e-01   1.9456e+05 ;    C44 - C45
  1634  1637   1   1.5380e-01   1.9456e+05 ;    C44 - C47
  1634  1639   1   1.0970e-01   3.1455e+05 ;    C44 - H73
  1634  1649   1   1.4230e-01   2.4552e+05 ;    C44 - O38
  1635  1638   1   1.0970e-01   3.1455e+05 ;    C45 - H72
  1635  1651   1   1.4230e-01   2.4552e+05 ;    C45 - O39
  1636  1640   1   1.0970e-01   3.1455e+05 ;    C46 - H74
  1636  1643   1   1.4320e-01   2.3832e+05 ;    C46 - O36
  1636  1644   1   1.5380e-01   1.9456e+05 ;    C46 - C48
  1637  1641   1   1.0960e-01   3.1572e+05 ;    C47 - H75
  1637  1643   1   1.4320e-01   2.3832e+05 ;    C47 - O36
  1637  1653   1   1.4320e-01   2.3832e+05 ;    C47 - O40
  1644  1645   1   1.0970e-01   3.1455e+05 ;    C48 - H77
  1644  1646   1   1.0970e-01   3.1455e+05 ;    C48 - H78
  1644  1647   1   1.4230e-01   2.4552e+05 ;    C48 - O37
  1647  1648   1   9.7300e-02   4.7154e+05 ;    O37 - H79
  1649  1650   1   9.7300e-02   4.7154e+05 ;    O38 - H80
  1651  1652   1   9.7300e-02   4.7154e+05 ;    O39 - H81
  1653  1654   1   1.4320e-01   2.3832e+05 ;    O40 - C49
  1654  1656   1   1.5380e-01   1.9456e+05 ;    C49 - C51
  1654  1657   1   1.5380e-01   1.9456e+05 ;    C49 - C52
  1654  1660   1   1.0970e-01   3.1455e+05 ;    C49 - H83
  1655  1658   1   1.5380e-01   1.9456e+05 ;    C50 - C53
  1655  1659   1   1.0960e-01   3.1572e+05 ;    C50 - H82
  1655  1668   1   1.4320e-01   2.3832e+05 ;    C50 - O43
  1655  1674   1   1.4320e-01   2.3832e+05 ;    C50 - O45
  1656  1663   1   1.0970e-01   3.1455e+05 ;    C51 - H86
  1656  1668   1   1.4320e-01   2.3832e+05 ;    C51 - O43
  1656  1669   1   1.5380e-01   1.9456e+05 ;    C51 - C54
  1657  1658   1   1.5380e-01   1.9456e+05 ;    C52 - C53
  1657  1661   1   1.0970e-01   3.1455e+05 ;    C52 - H84
  1657  1664   1   1.4230e-01   2.4552e+05 ;    C52 - O41
  1658  1662   1   1.0970e-01   3.1455e+05 ;    C53 - H85
  1658  1666   1   1.4230e-01   2.4552e+05 ;    C53 - O42
  1664  1665   1   9.7300e-02   4.7154e+05 ;    O41 - H87
  1666  1667   1   9.7300e-02   4.7154e+05 ;    O42 - H88
  1669  1670   1   1.0970e-01   3.1455e+05 ;    C54 - H89
  1669  1671   1   1.0970e-01   3.1455e+05 ;    C54 - H90
  1669  1672   1   1.4230e-01   2.4552e+05 ;    C54 - O44
  1672  1673   1   9.7300e-02   4.7154e+05 ;    O44 - H91
  1674  1675   1   1.4320e-01   2.3832e+05 ;    O45 - C55
  1675  1677   1   1.5380e-01   1.9456e+05 ;    C55 - C57
  1675  1678   1   1.5380e-01   1.9456e+05 ;    C55 - C58
  1675  1684   1   1.0970e-01   3.1455e+05 ;    C55 - H96
  1676  1677   1   1.5380e-01   1.9456e+05 ;    C56 - C57
  1676  1679   1   1.5380e-01   1.9456e+05 ;    C56 - C59
  1676  1681   1   1.0970e-01   3.1455e+05 ;    C56 - H93
  1676  1691   1   1.4230e-01   2.4552e+05 ;    C56 - O48
  1677  1680   1   1.0970e-01   3.1455e+05 ;    C57 - H92
  1677  1693   1   1.4230e-01   2.4552e+05 ;    C57 - O49
  1678  1682   1   1.0970e-01   3.1455e+05 ;    C58 - H94
  1678  1685   1   1.4320e-01   2.3832e+05 ;    C58 - O46
  1678  1686   1   1.5380e-01   1.9456e+05 ;    C58 - C60
  1679  1683   1   1.0960e-01   3.1572e+05 ;    C59 - H95
  1679  1685   1   1.4320e-01   2.3832e+05 ;    C59 - O46
  1679  1695   1   1.4230e-01   2.4552e+05 ;    C59 - O50
  1686  1687   1   1.0970e-01   3.1455e+05 ;    C60 - H97
  1686  1688   1   1.0970e-01   3.1455e+05 ;    C60 - H98
  1686  1689   1   1.4230e-01   2.4552e+05 ;    C60 - O47
  1689  1690   1   9.7300e-02   4.7154e+05 ;    O47 - H99
  1691  1692   1   9.7300e-02   4.7154e+05 ;    O48 - H100
  1693  1694   1   9.7300e-02   4.7154e+05 ;    O49 - H101
  1695  1696   1   9.7300e-02   4.7154e+05 ;    O50 - H102
  1697  1698   1   1.0970e-01   3.1455e+05 ;     H1 - C1
  1697  1705   1   0.1090e+00   3.1455e+05 ;     H1 - H4
  1698  1700   1   1.5380e-01   1.9456e+05 ;     C1 - C3
  1698  1701   1   1.5380e-01   1.9456e+05 ;     C1 - C4
  1698  1704   1   1.0970e-01   3.1455e+05 ;     C1 - H3
  1699  1702   1   1.5380e-01   1.9456e+05 ;     C2 - C5
  1699  1703   1   1.0960e-01   3.1572e+05 ;     C2 - H2
  1699  1712   1   1.4320e-01   2.3832e+05 ;     C2 - O3
  1699  1718   1   1.4320e-01   2.3832e+05 ;     C2 - O5
  1700  1707   1   1.0970e-01   3.1455e+05 ;     C3 - H6
  1700  1712   1   1.4320e-01   2.3832e+05 ;     C3 - O3
  1700  1713   1   1.5380e-01   1.9456e+05 ;     C3 - C6
  1701  1702   1   1.5380e-01   1.9456e+05 ;     C4 - C5
  1701  1705   1   1.0970e-01   3.1455e+05 ;     C4 - H4
  1701  1708   1   1.4230e-01   2.4552e+05 ;     C4 - O1
  1702  1706   1   1.0970e-01   3.1455e+05 ;     C5 - H5
  1702  1710   1   1.4230e-01   2.4552e+05 ;     C5 - O2
  1708  1709   1   9.7300e-02   4.7154e+05 ;     O1 - H7
  1710  1711   1   9.7300e-02   4.7154e+05 ;     O2 - H8
  1713  1714   1   1.0970e-01   3.1455e+05 ;     C6 - H9
  1713  1715   1   1.0970e-01   3.1455e+05 ;     C6 - H10
  1713  1716   1   1.4230e-01   2.4552e+05 ;     C6 - O4
  1716  1717   1   9.7300e-02   4.7154e+05 ;     O4 - H11
  1718  1719   1   1.4320e-01   2.3832e+05 ;     O5 - C7
  1719  1721   1   1.5380e-01   1.9456e+05 ;     C7 - C9
  1719  1722   1   1.5380e-01   1.9456e+05 ;     C7 - C10
  1719  1728   1   1.0970e-01   3.1455e+05 ;     C7 - H16
  1720  1721   1   1.5380e-01   1.9456e+05 ;     C8 - C9
  1720  1723   1   1.5380e-01   1.9456e+05 ;     C8 - C11
  1720  1725   1   1.0970e-01   3.1455e+05 ;     C8 - H13
  1720  1735   1   1.4230e-01   2.4552e+05 ;     C8 - O8
  1721  1724   1   1.0970e-01   3.1455e+05 ;     C9 - H12
  1721  1737   1   1.4230e-01   2.4552e+05 ;     C9 - O9
  1722  1726   1   1.0970e-01   3.1455e+05 ;    C10 - H14
  1722  1729   1   1.4320e-01   2.3832e+05 ;    C10 - O6
  1722  1730   1   1.5380e-01   1.9456e+05 ;    C10 - C12
  1723  1727   1   1.0960e-01   3.1572e+05 ;    C11 - H15
  1723  1729   1   1.4320e-01   2.3832e+05 ;    C11 - O6
  1723  1739   1   1.4320e-01   2.3832e+05 ;    C11 - O10
  1730  1731   1   1.0970e-01   3.1455e+05 ;    C12 - H17
  1730  1732   1   1.0970e-01   3.1455e+05 ;    C12 - H18
  1730  1733   1   1.4230e-01   2.4552e+05 ;    C12 - O7
  1733  1734   1   9.7300e-02   4.7154e+05 ;     O7 - H19
  1735  1736   1   9.7300e-02   4.7154e+05 ;     O8 - H20
  1737  1738   1   9.7300e-02   4.7154e+05 ;     O9 - H21
  1739  1740   1   1.4320e-01   2.3832e+05 ;    O10 - C13
  1740  1742   1   1.5380e-01   1.9456e+05 ;    C13 - C15
  1740  1743   1   1.5380e-01   1.9456e+05 ;    C13 - C16
  1740  1746   1   1.0970e-01   3.1455e+05 ;    C13 - H23
  1741  1744   1   1.5380e-01   1.9456e+05 ;    C14 - C17
  1741  1745   1   1.0960e-01   3.1572e+05 ;    C14 - H22
  1741  1754   1   1.4320e-01   2.3832e+05 ;    C14 - O13
  1741  1760   1   1.4320e-01   2.3832e+05 ;    C14 - O15
  1742  1749   1   1.0970e-01   3.1455e+05 ;    C15 - H26
  1742  1754   1   1.4320e-01   2.3832e+05 ;    C15 - O13
  1742  1755   1   1.5380e-01   1.9456e+05 ;    C15 - C18
  1743  1744   1   1.5380e-01   1.9456e+05 ;    C16 - C17
  1743  1747   1   1.0970e-01   3.1455e+05 ;    C16 - H24
  1743  1750   1   1.4230e-01   2.4552e+05 ;    C16 - O11
  1744  1748   1   1.0970e-01   3.1455e+05 ;    C17 - H25
  1744  1752   1   1.4230e-01   2.4552e+05 ;    C17 - O12
  1750  1751   1   9.7300e-02   4.7154e+05 ;    O11 - H27
  1752  1753   1   9.7300e-02   4.7154e+05 ;    O12 - H28
  1755  1756   1   1.0970e-01   3.1455e+05 ;    C18 - H29
  1755  1757   1   1.0970e-01   3.1455e+05 ;    C18 - H30
  1755  1758   1   1.4230e-01   2.4552e+05 ;    C18 - O14
  1758  1759   1   9.7300e-02   4.7154e+05 ;    O14 - H31
  1760  1761   1   1.4320e-01   2.3832e+05 ;    O15 - C19
  1761  1763   1   1.5380e-01   1.9456e+05 ;    C19 - C21
  1761  1764   1   1.5380e-01   1.9456e+05 ;    C19 - C22
  1761  1770   1   1.0970e-01   3.1455e+05 ;    C19 - H36
  1762  1763   1   1.5380e-01   1.9456e+05 ;    C20 - C21
  1762  1765   1   1.5380e-01   1.9456e+05 ;    C20 - C23
  1762  1767   1   1.0970e-01   3.1455e+05 ;    C20 - H33
  1762  1777   1   1.4230e-01   2.4552e+05 ;    C20 - O18
  1763  1766   1   1.0970e-01   3.1455e+05 ;    C21 - H32
  1763  1779   1   1.4230e-01   2.4552e+05 ;    C21 - O19
  1764  1768   1   1.0970e-01   3.1455e+05 ;    C22 - H34
  1764  1771   1   1.4320e-01   2.3832e+05 ;    C22 - O16
  1764  1772   1   1.5380e-01   1.9456e+05 ;    C22 - C24
  1765  1769   1   1.0960e-01   3.1572e+05 ;    C23 - H35
  1765  1771   1   1.4320e-01   2.3832e+05 ;    C23 - O16
  1765  1781   1   1.4320e-01   2.3832e+05 ;    C23 - O20
  1772  1773   1   1.0970e-01   3.1455e+05 ;    C24 - H37
  1772  1774   1   1.0970e-01   3.1455e+05 ;    C24 - H38
  1772  1775   1   1.4230e-01   2.4552e+05 ;    C24 - O17
  1775  1776   1   9.7300e-02   4.7154e+05 ;    O17 - H39
  1777  1778   1   9.7300e-02   4.7154e+05 ;    O18 - H40
  1779  1780   1   9.7300e-02   4.7154e+05 ;    O19 - H41
  1781  1782   1   1.4320e-01   2.3832e+05 ;    O20 - C25
  1782  1784   1   1.5380e-01   1.9456e+05 ;    C25 - C27
  1782  1785   1   1.5380e-01   1.9456e+05 ;    C25 - C28
  1782  1788   1   1.0970e-01   3.1455e+05 ;    C25 - H43
  1783  1786   1   1.5380e-01   1.9456e+05 ;    C26 - C29
  1783  1787   1   1.0960e-01   3.1572e+05 ;    C26 - H42
  1783  1796   1   1.4320e-01   2.3832e+05 ;    C26 - O23
  1783  1802   1   1.4320e-01   2.3832e+05 ;    C26 - O25
  1784  1791   1   1.0970e-01   3.1455e+05 ;    C27 - H46
  1784  1796   1   1.4320e-01   2.3832e+05 ;    C27 - O23
  1784  1797   1   1.5380e-01   1.9456e+05 ;    C27 - C30
  1785  1786   1   1.5380e-01   1.9456e+05 ;    C28 - C29
  1785  1789   1   1.0970e-01   3.1455e+05 ;    C28 - H44
  1785  1792   1   1.4230e-01   2.4552e+05 ;    C28 - O21
  1786  1790   1   1.0970e-01   3.1455e+05 ;    C29 - H45
  1786  1794   1   1.4230e-01   2.4552e+05 ;    C29 - O22
  1792  1793   1   9.7300e-02   4.7154e+05 ;    O21 - H47
  1794  1795   1   9.7300e-02   4.7154e+05 ;    O22 - H48
  1797  1798   1   1.0970e-01   3.1455e+05 ;    C30 - H49
  1797  1799   1   1.0970e-01   3.1455e+05 ;    C30 - H50
  1797  1800   1   1.4230e-01   2.4552e+05 ;    C30 - O24
  1800  1801   1   9.7300e-02   4.7154e+05 ;    O24 - H51
  1802  1803   1   1.4320e-01   2.3832e+05 ;    O25 - C31
  1803  1805   1   1.5380e-01   1.9456e+05 ;    C31 - C33
  1803  1806   1   1.5380e-01   1.9456e+05 ;    C31 - C34
  1803  1812   1   1.0970e-01   3.1455e+05 ;    C31 - H56
  1804  1805   1   1.5380e-01   1.9456e+05 ;    C32 - C33
  1804  1807   1   1.5380e-01   1.9456e+05 ;    C32 - C35
  1804  1809   1   1.0970e-01   3.1455e+05 ;    C32 - H53
  1804  1819   1   1.4230e-01   2.4552e+05 ;    C32 - O28
  1805  1808   1   1.0970e-01   3.1455e+05 ;    C33 - H52
  1805  1821   1   1.4230e-01   2.4552e+05 ;    C33 - O29
  1806  1810   1   1.0970e-01   3.1455e+05 ;    C34 - H54
  1806  1813   1   1.4320e-01   2.3832e+05 ;    C34 - O26
  1806  1814   1   1.5380e-01   1.9456e+05 ;    C34 - C36
  1807  1811   1   1.0960e-01   3.1572e+05 ;    C35 - H55
  1807  1813   1   1.4320e-01   2.3832e+05 ;    C35 - O26
  1807  1823   1   1.4320e-01   2.3832e+05 ;    C35 - O30
  1814  1815   1   1.0970e-01   3.1455e+05 ;    C36 - H57
  1814  1816   1   1.0970e-01   3.1455e+05 ;    C36 - H58
  1814  1817   1   1.4230e-01   2.4552e+05 ;    C36 - O27
  1817  1818   1   9.7300e-02   4.7154e+05 ;    O27 - H59
  1819  1820   1   9.7300e-02   4.7154e+05 ;    O28 - H60
  1821  1822   1   9.7300e-02   4.7154e+05 ;    O29 - H61
  1823  1824   1   1.4320e-01   2.3832e+05 ;    O30 - C37
  1824  1826   1   1.5380e-01   1.9456e+05 ;    C37 - C39
  1824  1827   1   1.5380e-01   1.9456e+05 ;    C37 - C40
  1824  1830   1   1.0970e-01   3.1455e+05 ;    C37 - H63
  1825  1828   1   1.5380e-01   1.9456e+05 ;    C38 - C41
  1825  1829   1   1.0960e-01   3.1572e+05 ;    C38 - H62
  1825  1838   1   1.4320e-01   2.3832e+05 ;    C38 - O33
  1825  1844   1   1.4320e-01   2.3832e+05 ;    C38 - O35
  1826  1833   1   1.0970e-01   3.1455e+05 ;    C39 - H66
  1826  1838   1   1.4320e-01   2.3832e+05 ;    C39 - O33
  1826  1839   1   1.5380e-01   1.9456e+05 ;    C39 - C42
  1827  1828   1   1.5380e-01   1.9456e+05 ;    C40 - C41
  1827  1831   1   1.0970e-01   3.1455e+05 ;    C40 - H64
  1827  1834   1   1.4230e-01   2.4552e+05 ;    C40 - O31
  1828  1832   1   1.0970e-01   3.1455e+05 ;    C41 - H65
  1828  1836   1   1.4230e-01   2.4552e+05 ;    C41 - O32
  1834  1835   1   9.7300e-02   4.7154e+05 ;    O31 - H67
  1836  1837   1   9.7300e-02   4.7154e+05 ;    O32 - H68
  1839  1840   1   1.0970e-01   3.1455e+05 ;    C42 - H69
  1839  1841   1   1.0970e-01   3.1455e+05 ;    C42 - H70
  1839  1842   1   1.4230e-01   2.4552e+05 ;    C42 - O34
  1842  1843   1   9.7300e-02   4.7154e+05 ;    O34 - H71
  1844  1845   1   1.4320e-01   2.3832e+05 ;    O35 - C43
  1845  1847   1   1.5380e-01   1.9456e+05 ;    C43 - C45
  1845  1848   1   1.5380e-01   1.9456e+05 ;    C43 - C46
  1845  1854   1   1.0970e-01   3.1455e+05 ;    C43 - H76
  1846  1847   1   1.5380e-01   1.9456e+05 ;    C44 - C45
  1846  1849   1   1.5380e-01   1.9456e+05 ;    C44 - C47
  1846  1851   1   1.0970e-01   3.1455e+05 ;    C44 - H73
  1846  1861   1   1.4230e-01   2.4552e+05 ;    C44 - O38
  1847  1850   1   1.0970e-01   3.1455e+05 ;    C45 - H72
  1847  1863   1   1.4230e-01   2.4552e+05 ;    C45 - O39
  1848  1852   1   1.0970e-01   3.1455e+05 ;    C46 - H74
  1848  1855   1   1.4320e-01   2.3832e+05 ;    C46 - O36
  1848  1856   1   1.5380e-01   1.9456e+05 ;    C46 - C48
  1849  1853   1   1.0960e-01   3.1572e+05 ;    C47 - H75
  1849  1855   1   1.4320e-01   2.3832e+05 ;    C47 - O36
  1849  1865   1   1.4320e-01   2.3832e+05 ;    C47 - O40
  1856  1857   1   1.0970e-01   3.1455e+05 ;    C48 - H77
  1856  1858   1   1.0970e-01   3.1455e+05 ;    C48 - H78
  1856  1859   1   1.4230e-01   2.4552e+05 ;    C48 - O37
  1859  1860   1   9.7300e-02   4.7154e+05 ;    O37 - H79
  1861  1862   1   9.7300e-02   4.7154e+05 ;    O38 - H80
  1863  1864   1   9.7300e-02   4.7154e+05 ;    O39 - H81
  1865  1866   1   1.4320e-01   2.3832e+05 ;    O40 - C49
  1866  1868   1   1.5380e-01   1.9456e+05 ;    C49 - C51
  1866  1869   1   1.5380e-01   1.9456e+05 ;    C49 - C52
  1866  1872   1   1.0970e-01   3.1455e+05 ;    C49 - H83
  1867  1870   1   1.5380e-01   1.9456e+05 ;    C50 - C53
  1867  1871   1   1.0960e-01   3.1572e+05 ;    C50 - H82
  1867  1880   1   1.4320e-01   2.3832e+05 ;    C50 - O43
  1867  1886   1   1.4320e-01   2.3832e+05 ;    C50 - O45
  1868  1875   1   1.0970e-01   3.1455e+05 ;    C51 - H86
  1868  1880   1   1.4320e-01   2.3832e+05 ;    C51 - O43
  1868  1881   1   1.5380e-01   1.9456e+05 ;    C51 - C54
  1869  1870   1   1.5380e-01   1.9456e+05 ;    C52 - C53
  1869  1873   1   1.0970e-01   3.1455e+05 ;    C52 - H84
  1869  1876   1   1.4230e-01   2.4552e+05 ;    C52 - O41
  1870  1874   1   1.0970e-01   3.1455e+05 ;    C53 - H85
  1870  1878   1   1.4230e-01   2.4552e+05 ;    C53 - O42
  1876  1877   1   9.7300e-02   4.7154e+05 ;    O41 - H87
  1878  1879   1   9.7300e-02   4.7154e+05 ;    O42 - H88
  1881  1882   1   1.0970e-01   3.1455e+05 ;    C54 - H89
  1881  1883   1   1.0970e-01   3.1455e+05 ;    C54 - H90
  1881  1884   1   1.4230e-01   2.4552e+05 ;    C54 - O44
  1884  1885   1   9.7300e-02   4.7154e+05 ;    O44 - H91
  1886  1887   1   1.4320e-01   2.3832e+05 ;    O45 - C55
  1887  1889   1   1.5380e-01   1.9456e+05 ;    C55 - C57
  1887  1890   1   1.5380e-01   1.9456e+05 ;    C55 - C58
  1887  1896   1   1.0970e-01   3.1455e+05 ;    C55 - H96
  1888  1889   1   1.5380e-01   1.9456e+05 ;    C56 - C57
  1888  1891   1   1.5380e-01   1.9456e+05 ;    C56 - C59
  1888  1893   1   1.0970e-01   3.1455e+05 ;    C56 - H93
  1888  1903   1   1.4230e-01   2.4552e+05 ;    C56 - O48
  1889  1892   1   1.0970e-01   3.1455e+05 ;    C57 - H92
  1889  1905   1   1.4230e-01   2.4552e+05 ;    C57 - O49
  1890  1894   1   1.0970e-01   3.1455e+05 ;    C58 - H94
  1890  1897   1   1.4320e-01   2.3832e+05 ;    C58 - O46
  1890  1898   1   1.5380e-01   1.9456e+05 ;    C58 - C60
  1891  1895   1   1.0960e-01   3.1572e+05 ;    C59 - H95
  1891  1897   1   1.4320e-01   2.3832e+05 ;    C59 - O46
  1891  1907   1   1.4230e-01   2.4552e+05 ;    C59 - O50
  1898  1899   1   1.0970e-01   3.1455e+05 ;    C60 - H97
  1898  1900   1   1.0970e-01   3.1455e+05 ;    C60 - H98
  1898  1901   1   1.4230e-01   2.4552e+05 ;    C60 - O47
  1901  1902   1   9.7300e-02   4.7154e+05 ;    O47 - H99
  1903  1904   1   9.7300e-02   4.7154e+05 ;    O48 - H100
  1905  1906   1   9.7300e-02   4.7154e+05 ;    O49 - H101
  1907  1908   1   9.7300e-02   4.7154e+05 ;    O50 - H102
  1909  1910   1   1.0970e-01   3.1455e+05 ;     H1 - C1
  1909  1917   1   0.1090e+00   3.1455e+05 ;     H1 - H4
  1910  1912   1   1.5380e-01   1.9456e+05 ;     C1 - C3
  1910  1913   1   1.5380e-01   1.9456e+05 ;     C1 - C4
  1910  1916   1   1.0970e-01   3.1455e+05 ;     C1 - H3
  1911  1914   1   1.5380e-01   1.9456e+05 ;     C2 - C5
  1911  1915   1   1.0960e-01   3.1572e+05 ;     C2 - H2
  1911  1924   1   1.4320e-01   2.3832e+05 ;     C2 - O3
  1911  1930   1   1.4320e-01   2.3832e+05 ;     C2 - O5
  1912  1919   1   1.0970e-01   3.1455e+05 ;     C3 - H6
  1912  1924   1   1.4320e-01   2.3832e+05 ;     C3 - O3
  1912  1925   1   1.5380e-01   1.9456e+05 ;     C3 - C6
  1913  1914   1   1.5380e-01   1.9456e+05 ;     C4 - C5
  1913  1917   1   1.0970e-01   3.1455e+05 ;     C4 - H4
  1913  1920   1   1.4230e-01   2.4552e+05 ;     C4 - O1
  1914  1918   1   1.0970e-01   3.1455e+05 ;     C5 - H5
  1914  1922   1   1.4230e-01   2.4552e+05 ;     C5 - O2
  1920  1921   1   9.7300e-02   4.7154e+05 ;     O1 - H7
  1922  1923   1   9.7300e-02   4.7154e+05 ;     O2 - H8
  1925  1926   1   1.0970e-01   3.1455e+05 ;     C6 - H9
  1925  1927   1   1.0970e-01   3.1455e+05 ;     C6 - H10
  1925  1928   1   1.4230e-01   2.4552e+05 ;     C6 - O4
  1928  1929   1   9.7300e-02   4.7154e+05 ;     O4 - H11
  1930  1931   1   1.4320e-01   2.3832e+05 ;     O5 - C7
  1931  1933   1   1.5380e-01   1.9456e+05 ;     C7 - C9
  1931  1934   1   1.5380e-01   1.9456e+05 ;     C7 - C10
  1931  1940   1   1.0970e-01   3.1455e+05 ;     C7 - H16
  1932  1933   1   1.5380e-01   1.9456e+05 ;     C8 - C9
  1932  1935   1   1.5380e-01   1.9456e+05 ;     C8 - C11
  1932  1937   1   1.0970e-01   3.1455e+05 ;     C8 - H13
  1932  1947   1   1.4230e-01   2.4552e+05 ;     C8 - O8
  1933  1936   1   1.0970e-01   3.1455e+05 ;     C9 - H12
  1933  1949   1   1.4230e-01   2.4552e+05 ;     C9 - O9
  1934  1938   1   1.0970e-01   3.1455e+05 ;    C10 - H14
  1934  1941   1   1.4320e-01   2.3832e+05 ;    C10 - O6
  1934  1942   1   1.5380e-01   1.9456e+05 ;    C10 - C12
  1935  1939   1   1.0960e-01   3.1572e+05 ;    C11 - H15
  1935  1941   1   1.4320e-01   2.3832e+05 ;    C11 - O6
  1935  1951   1   1.4320e-01   2.3832e+05 ;    C11 - O10
  1942  1943   1   1.0970e-01   3.1455e+05 ;    C12 - H17
  1942  1944   1   1.0970e-01   3.1455e+05 ;    C12 - H18
  1942  1945   1   1.4230e-01   2.4552e+05 ;    C12 - O7
  1945  1946   1   9.7300e-02   4.7154e+05 ;     O7 - H19
  1947  1948   1   9.7300e-02   4.7154e+05 ;     O8 - H20
  1949  1950   1   9.7300e-02   4.7154e+05 ;     O9 - H21
  1951  1952   1   1.4320e-01   2.3832e+05 ;    O10 - C13
  1952  1954   1   1.5380e-01   1.9456e+05 ;    C13 - C15
  1952  1955   1   1.5380e-01   1.9456e+05 ;    C13 - C16
  1952  1958   1   1.0970e-01   3.1455e+05 ;    C13 - H23
  1953  1956   1   1.5380e-01   1.9456e+05 ;    C14 - C17
  1953  1957   1   1.0960e-01   3.1572e+05 ;    C14 - H22
  1953  1966   1   1.4320e-01   2.3832e+05 ;    C14 - O13
  1953  1972   1   1.4320e-01   2.3832e+05 ;    C14 - O15
  1954  1961   1   1.0970e-01   3.1455e+05 ;    C15 - H26
  1954  1966   1   1.4320e-01   2.3832e+05 ;    C15 - O13
  1954  1967   1   1.5380e-01   1.9456e+05 ;    C15 - C18
  1955  1956   1   1.5380e-01   1.9456e+05 ;    C16 - C17
  1955  1959   1   1.0970e-01   3.1455e+05 ;    C16 - H24
  1955  1962   1   1.4230e-01   2.4552e+05 ;    C16 - O11
  1956  1960   1   1.0970e-01   3.1455e+05 ;    C17 - H25
  1956  1964   1   1.4230e-01   2.4552e+05 ;    C17 - O12
  1962  1963   1   9.7300e-02   4.7154e+05 ;    O11 - H27
  1964  1965   1   9.7300e-02   4.7154e+05 ;    O12 - H28
  1967  1968   1   1.0970e-01   3.1455e+05 ;    C18 - H29
  1967  1969   1   1.0970e-01   3.1455e+05 ;    C18 - H30
  1967  1970   1   1.4230e-01   2.4552e+05 ;    C18 - O14
  1970  1971   1   9.7300e-02   4.7154e+05 ;    O14 - H31
  1972  1973   1   1.4320e-01   2.3832e+05 ;    O15 - C19
  1973  1975   1   1.5380e-01   1.9456e+05 ;    C19 - C21
  1973  1976   1   1.5380e-01   1.9456e+05 ;    C19 - C22
  1973  1982   1   1.0970e-01   3.1455e+05 ;    C19 - H36
  1974  1975   1   1.5380e-01   1.9456e+05 ;    C20 - C21
  1974  1977   1   1.5380e-01   1.9456e+05 ;    C20 - C23
  1974  1979   1   1.0970e-01   3.1455e+05 ;    C20 - H33
  1974  1989   1   1.4230e-01   2.4552e+05 ;    C20 - O18
  1975  1978   1   1.0970e-01   3.1455e+05 ;    C21 - H32
  1975  1991   1   1.4230e-01   2.4552e+05 ;    C21 - O19
  1976  1980   1   1.0970e-01   3.1455e+05 ;    C22 - H34
  1976  1983   1   1.4320e-01   2.3832e+05 ;    C22 - O16
  1976  1984   1   1.5380e-01   1.9456e+05 ;    C22 - C24
  1977  1981   1   1.0960e-01   3.1572e+05 ;    C23 - H35
  1977  1983   1   1.4320e-01   2.3832e+05 ;    C23 - O16
  1977  1993   1   1.4320e-01   2.3832e+05 ;    C23 - O20
  1984  1985   1   1.0970e-01   3.1455e+05 ;    C24 - H37
  1984  1986   1   1.0970e-01   3.1455e+05 ;    C24 - H38
  1984  1987   1   1.4230e-01   2.4552e+05 ;    C24 - O17
  1987  1988   1   9.7300e-02   4.7154e+05 ;    O17 - H39
  1989  1990   1   9.7300e-02   4.7154e+05 ;    O18 - H40
  1991  1992   1   9.7300e-02   4.7154e+05 ;    O19 - H41
  1993  1994   1   1.4320e-01   2.3832e+05 ;    O20 - C25
  1994  1996   1   1.5380e-01   1.9456e+05 ;    C25 - C27
  1994  1997   1   1.5380e-01   1.9456e+05 ;    C25 - C28
  1994  2000   1   1.0970e-01   3.1455e+05 ;    C25 - H43
  1995  1998   1   1.5380e-01   1.9456e+05 ;    C26 - C29
  1995  1999   1   1.0960e-01   3.1572e+05 ;    C26 - H42
  1995  2008   1   1.4320e-01   2.3832e+05 ;    C26 - O23
  1995  2014   1   1.4320e-01   2.3832e+05 ;    C26 - O25
  1996  2003   1   1.0970e-01   3.1455e+05 ;    C27 - H46
  1996  2008   1   1.4320e-01   2.3832e+05 ;    C27 - O23
  1996  2009   1   1.5380e-01   1.9456e+05 ;    C27 - C30
  1997  1998   1   1.5380e-01   1.9456e+05 ;    C28 - C29
  1997  2001   1   1.0970e-01   3.1455e+05 ;    C28 - H44
  1997  2004   1   1.4230e-01   2.4552e+05 ;    C28 - O21
  1998  2002   1   1.0970e-01   3.1455e+05 ;    C29 - H45
  1998  2006   1   1.4230e-01   2.4552e+05 ;    C29 - O22
  2004  2005   1   9.7300e-02   4.7154e+05 ;    O21 - H47
  2006  2007   1   9.7300e-02   4.7154e+05 ;    O22 - H48
  2009  2010   1   1.0970e-01   3.1455e+05 ;    C30 - H49
  2009  2011   1   1.0970e-01   3.1455e+05 ;    C30 - H50
  2009  2012   1   1.4230e-01   2.4552e+05 ;    C30 - O24
  2012  2013   1   9.7300e-02   4.7154e+05 ;    O24 - H51
  2014  2015   1   1.4320e-01   2.3832e+05 ;    O25 - C31
  2015  2017   1   1.5380e-01   1.9456e+05 ;    C31 - C33
  2015  2018   1   1.5380e-01   1.9456e+05 ;    C31 - C34
  2015  2024   1   1.0970e-01   3.1455e+05 ;    C31 - H56
  2016  2017   1   1.5380e-01   1.9456e+05 ;    C32 - C33
  2016  2019   1   1.5380e-01   1.9456e+05 ;    C32 - C35
  2016  2021   1   1.0970e-01   3.1455e+05 ;    C32 - H53
  2016  2031   1   1.4230e-01   2.4552e+05 ;    C32 - O28
  2017  2020   1   1.0970e-01   3.1455e+05 ;    C33 - H52
  2017  2033   1   1.4230e-01   2.4552e+05 ;    C33 - O29
  2018  2022   1   1.0970e-01   3.1455e+05 ;    C34 - H54
  2018  2025   1   1.4320e-01   2.3832e+05 ;    C34 - O26
  2018  2026   1   1.5380e-01   1.9456e+05 ;    C34 - C36
  2019  2023   1   1.0960e-01   3.1572e+05 ;    C35 - H55
  2019  2025   1   1.4320e-01   2.3832e+05 ;    C35 - O26
  2019  2035   1   1.4320e-01   2.3832e+05 ;    C35 - O30
  2026  2027   1   1.0970e-01   3.1455e+05 ;    C36 - H57
  2026  2028   1   1.0970e-01   3.1455e+05 ;    C36 - H58
  2026  2029   1   1.4230e-01   2.4552e+05 ;    C36 - O27
  2029  2030   1   9.7300e-02   4.7154e+05 ;    O27 - H59
  2031  2032   1   9.7300e-02   4.7154e+05 ;    O28 - H60
  2033  2034   1   9.7300e-02   4.7154e+05 ;    O29 - H61
  2035  2036   1   1.4320e-01   2.3832e+05 ;    O30 - C37
  2036  2038   1   1.5380e-01   1.9456e+05 ;    C37 - C39
  2036  2039   1   1.5380e-01   1.9456e+05 ;    C37 - C40
  2036  2042   1   1.0970e-01   3.1455e+05 ;    C37 - H63
  2037  2040   1   1.5380e-01   1.9456e+05 ;    C38 - C41
  2037  2041   1   1.0960e-01   3.1572e+05 ;    C38 - H62
  2037  2050   1   1.4320e-01   2.3832e+05 ;    C38 - O33
  2037  2056   1   1.4320e-01   2.3832e+05 ;    C38 - O35
  2038  2045   1   1.0970e-01   3.1455e+05 ;    C39 - H66
  2038  2050   1   1.4320e-01   2.3832e+05 ;    C39 - O33
  2038  2051   1   1.5380e-01   1.9456e+05 ;    C39 - C42
  2039  2040   1   1.5380e-01   1.9456e+05 ;    C40 - C41
  2039  2043   1   1.0970e-01   3.1455e+05 ;    C40 - H64
  2039  2046   1   1.4230e-01   2.4552e+05 ;    C40 - O31
  2040  2044   1   1.0970e-01   3.1455e+05 ;    C41 - H65
  2040  2048   1   1.4230e-01   2.4552e+05 ;    C41 - O32
  2046  2047   1   9.7300e-02   4.7154e+05 ;    O31 - H67
  2048  2049   1   9.7300e-02   4.7154e+05 ;    O32 - H68
  2051  2052   1   1.0970e-01   3.1455e+05 ;    C42 - H69
  2051  2053   1   1.0970e-01   3.1455e+05 ;    C42 - H70
  2051  2054   1   1.4230e-01   2.4552e+05 ;    C42 - O34
  2054  2055   1   9.7300e-02   4.7154e+05 ;    O34 - H71
  2056  2057   1   1.4320e-01   2.3832e+05 ;    O35 - C43
  2057  2059   1   1.5380e-01   1.9456e+05 ;    C43 - C45
  2057  2060   1   1.5380e-01   1.9456e+05 ;    C43 - C46
  2057  2066   1   1.0970e-01   3.1455e+05 ;    C43 - H76
  2058  2059   1   1.5380e-01   1.9456e+05 ;    C44 - C45
  2058  2061   1   1.5380e-01   1.9456e+05 ;    C44 - C47
  2058  2063   1   1.0970e-01   3.1455e+05 ;    C44 - H73
  2058  2073   1   1.4230e-01   2.4552e+05 ;    C44 - O38
  2059  2062   1   1.0970e-01   3.1455e+05 ;    C45 - H72
  2059  2075   1   1.4230e-01   2.4552e+05 ;    C45 - O39
  2060  2064   1   1.0970e-01   3.1455e+05 ;    C46 - H74
  2060  2067   1   1.4320e-01   2.3832e+05 ;    C46 - O36
  2060  2068   1   1.5380e-01   1.9456e+05 ;    C46 - C48
  2061  2065   1   1.0960e-01   3.1572e+05 ;    C47 - H75
  2061  2067   1   1.4320e-01   2.3832e+05 ;    C47 - O36
  2061  2077   1   1.4320e-01   2.3832e+05 ;    C47 - O40
  2068  2069   1   1.0970e-01   3.1455e+05 ;    C48 - H77
  2068  2070   1   1.0970e-01   3.1455e+05 ;    C48 - H78
  2068  2071   1   1.4230e-01   2.4552e+05 ;    C48 - O37
  2071  2072   1   9.7300e-02   4.7154e+05 ;    O37 - H79
  2073  2074   1   9.7300e-02   4.7154e+05 ;    O38 - H80
  2075  2076   1   9.7300e-02   4.7154e+05 ;    O39 - H81
  2077  2078   1   1.4320e-01   2.3832e+05 ;    O40 - C49
  2078  2080   1   1.5380e-01   1.9456e+05 ;    C49 - C51
  2078  2081   1   1.5380e-01   1.9456e+05 ;    C49 - C52
  2078  2084   1   1.0970e-01   3.1455e+05 ;    C49 - H83
  2079  2082   1   1.5380e-01   1.9456e+05 ;    C50 - C53
  2079  2083   1   1.0960e-01   3.1572e+05 ;    C50 - H82
  2079  2092   1   1.4320e-01   2.3832e+05 ;    C50 - O43
  2079  2098   1   1.4320e-01   2.3832e+05 ;    C50 - O45
  2080  2087   1   1.0970e-01   3.1455e+05 ;    C51 - H86
  2080  2092   1   1.4320e-01   2.3832e+05 ;    C51 - O43
  2080  2093   1   1.5380e-01   1.9456e+05 ;    C51 - C54
  2081  2082   1   1.5380e-01   1.9456e+05 ;    C52 - C53
  2081  2085   1   1.0970e-01   3.1455e+05 ;    C52 - H84
  2081  2088   1   1.4230e-01   2.4552e+05 ;    C52 - O41
  2082  2086   1   1.0970e-01   3.1455e+05 ;    C53 - H85
  2082  2090   1   1.4230e-01   2.4552e+05 ;    C53 - O42
  2088  2089   1   9.7300e-02   4.7154e+05 ;    O41 - H87
  2090  2091   1   9.7300e-02   4.7154e+05 ;    O42 - H88
  2093  2094   1   1.0970e-01   3.1455e+05 ;    C54 - H89
  2093  2095   1   1.0970e-01   3.1455e+05 ;    C54 - H90
  2093  2096   1   1.4230e-01   2.4552e+05 ;    C54 - O44
  2096  2097   1   9.7300e-02   4.7154e+05 ;    O44 - H91
  2098  2099   1   1.4320e-01   2.3832e+05 ;    O45 - C55
  2099  2101   1   1.5380e-01   1.9456e+05 ;    C55 - C57
  2099  2102   1   1.5380e-01   1.9456e+05 ;    C55 - C58
  2099  2108   1   1.0970e-01   3.1455e+05 ;    C55 - H96
  2100  2101   1   1.5380e-01   1.9456e+05 ;    C56 - C57
  2100  2103   1   1.5380e-01   1.9456e+05 ;    C56 - C59
  2100  2105   1   1.0970e-01   3.1455e+05 ;    C56 - H93
  2100  2115   1   1.4230e-01   2.4552e+05 ;    C56 - O48
  2101  2104   1   1.0970e-01   3.1455e+05 ;    C57 - H92
  2101  2117   1   1.4230e-01   2.4552e+05 ;    C57 - O49
  2102  2106   1   1.0970e-01   3.1455e+05 ;    C58 - H94
  2102  2109   1   1.4320e-01   2.3832e+05 ;    C58 - O46
  2102  2110   1   1.5380e-01   1.9456e+05 ;    C58 - C60
  2103  2107   1   1.0960e-01   3.1572e+05 ;    C59 - H95
  2103  2109   1   1.4320e-01   2.3832e+05 ;    C59 - O46
  2103  2119   1   1.4230e-01   2.4552e+05 ;    C59 - O50
  2110  2111   1   1.0970e-01   3.1455e+05 ;    C60 - H97
  2110  2112   1   1.0970e-01   3.1455e+05 ;    C60 - H98
  2110  2113   1   1.4230e-01   2.4552e+05 ;    C60 - O47
  2113  2114   1   9.7300e-02   4.7154e+05 ;    O47 - H99
  2115  2116   1   9.7300e-02   4.7154e+05 ;    O48 - H100
  2117  2118   1   9.7300e-02   4.7154e+05 ;    O49 - H101
  2119  2120   1   9.7300e-02   4.7154e+05 ;    O50 - H102

[ pairs ]
;   ai     aj    funct

     1     6   1 ;     H1 - C5
     1     9   1 ;     H1 - H4
     1    11   1 ;     H1 - H6
     1    12   1 ;     H1 - O1
     1    16   1 ;     H1 - O3
     1    17   1 ;     H1 - C6
     2     3   1 ;     C1 - C2
     2    10   1 ;     C1 - H5
     2    13   1 ;     C1 - H7
     2    14   1 ;     C1 - O2
     2    18   1 ;     C1 - H9
     2    19   1 ;     C1 - H10
     2    20   1 ;     C1 - O4
     3     9   1 ;     C2 - H4
     3    11   1 ;     C2 - H6
     3    12   1 ;     C2 - O1
     3    15   1 ;     C2 - H8
     3    17   1 ;     C2 - C6
     3    25   1 ;     C2 - C9
     3    26   1 ;     C2 - C10
     3    32   1 ;     C2 - H16
     4     6   1 ;     C3 - C5
     4     7   1 ;     C3 - H2
     4     9   1 ;     C3 - H4
     4    12   1 ;     C3 - O1
     4    21   1 ;     C3 - H11
     4    22   1 ;     C3 - O5
     5     7   1 ;     C4 - H2
     5    11   1 ;     C4 - H6
     5    15   1 ;     C4 - H8
     5    16   1 ;     C4 - O3
     5    17   1 ;     C4 - C6
     5    22   1 ;     C4 - O5
     6     8   1 ;     C5 - H3
     6    13   1 ;     C5 - H7
     6    23   1 ;     C5 - C7
     7    10   1 ;     H2 - H5
     7    14   1 ;     H2 - O2
     7    23   1 ;     H2 - C7
     8     9   1 ;     H3 - H4
     8    11   1 ;     H3 - H6
     8    12   1 ;     H3 - O1
     8    16   1 ;     H3 - O3
     8    17   1 ;     H3 - C6
     9    10   1 ;     H4 - H5
     9    13   1 ;     H4 - H7
     9    14   1 ;     H4 - O2
    10    12   1 ;     H5 - O1
    10    15   1 ;     H5 - H8
    10    16   1 ;     H5 - O3
    10    22   1 ;     H5 - O5
    11    18   1 ;     H6 - H9
    11    19   1 ;     H6 - H10
    11    20   1 ;     H6 - O4
    12    14   1 ;     O1 - O2
    14    16   1 ;     O2 - O3
    14    22   1 ;     O2 - O5
    16    18   1 ;     O3 - H9
    16    19   1 ;     O3 - H10
    16    20   1 ;     O3 - O4
    16    23   1 ;     O3 - C7
    18    21   1 ;     H9 - H11
    19    21   1 ;    H10 - H11
    22    24   1 ;     O5 - C8
    22    28   1 ;     O5 - H12
    22    30   1 ;     O5 - H14
    22    33   1 ;     O5 - O6
    22    34   1 ;     O5 - C12
    22    41   1 ;     O5 - O9
    23    27   1 ;     C7 - C11
    23    29   1 ;     C7 - H13
    23    35   1 ;     C7 - H17
    23    36   1 ;     C7 - H18
    23    37   1 ;     C7 - O7
    23    39   1 ;     C7 - O8
    23    42   1 ;     C7 - H21
    24    26   1 ;     C8 - C10
    24    32   1 ;     C8 - H16
    24    42   1 ;     C8 - H21
    24    44   1 ;     C8 - C13
    25    30   1 ;     C9 - H14
    25    31   1 ;     C9 - H15
    25    33   1 ;     C9 - O6
    25    34   1 ;     C9 - C12
    25    40   1 ;     C9 - H20
    25    43   1 ;     C9 - O10
    26    28   1 ;    C10 - H12
    26    31   1 ;    C10 - H15
    26    38   1 ;    C10 - H19
    26    41   1 ;    C10 - O9
    26    43   1 ;    C10 - O10
    27    28   1 ;    C11 - H12
    27    30   1 ;    C11 - H14
    27    34   1 ;    C11 - C12
    27    40   1 ;    C11 - H20
    27    41   1 ;    C11 - O9
    27    46   1 ;    C11 - C15
    27    47   1 ;    C11 - C16
    27    50   1 ;    C11 - H23
    28    29   1 ;    H12 - H13
    28    32   1 ;    H12 - H16
    28    39   1 ;    H12 - O8
    28    42   1 ;    H12 - H21
    29    31   1 ;    H13 - H15
    29    33   1 ;    H13 - O6
    29    40   1 ;    H13 - H20
    29    41   1 ;    H13 - O9
    29    43   1 ;    H13 - O10
    30    32   1 ;    H14 - H16
    30    35   1 ;    H14 - H17
    30    36   1 ;    H14 - H18
    30    37   1 ;    H14 - O7
    31    39   1 ;    H15 - O8
    31    44   1 ;    H15 - C13
    32    33   1 ;    H16 - O6
    32    34   1 ;    H16 - C12
    32    41   1 ;    H16 - O9
    33    35   1 ;     O6 - H17
    33    36   1 ;     O6 - H18
    33    37   1 ;     O6 - O7
    33    39   1 ;     O6 - O8
    33    44   1 ;     O6 - C13
    35    38   1 ;    H17 - H19
    36    38   1 ;    H18 - H19
    39    41   1 ;     O8 - O9
    39    43   1 ;     O8 - O10
    43    48   1 ;    O10 - C17
    43    51   1 ;    O10 - H24
    43    53   1 ;    O10 - H26
    43    54   1 ;    O10 - O11
    43    58   1 ;    O10 - O13
    43    59   1 ;    O10 - C18
    44    45   1 ;    C13 - C14
    44    52   1 ;    C13 - H25
    44    55   1 ;    C13 - H27
    44    56   1 ;    C13 - O12
    44    60   1 ;    C13 - H29
    44    61   1 ;    C13 - H30
    44    62   1 ;    C13 - O14
    45    51   1 ;    C14 - H24
    45    53   1 ;    C14 - H26
    45    54   1 ;    C14 - O11
    45    57   1 ;    C14 - H28
    45    59   1 ;    C14 - C18
    45    67   1 ;    C14 - C21
    45    68   1 ;    C14 - C22
    45    74   1 ;    C14 - H36
    46    48   1 ;    C15 - C17
    46    49   1 ;    C15 - H22
    46    51   1 ;    C15 - H24
    46    54   1 ;    C15 - O11
    46    63   1 ;    C15 - H31
    46    64   1 ;    C15 - O15
    47    49   1 ;    C16 - H22
    47    53   1 ;    C16 - H26
    47    57   1 ;    C16 - H28
    47    58   1 ;    C16 - O13
    47    59   1 ;    C16 - C18
    47    64   1 ;    C16 - O15
    48    50   1 ;    C17 - H23
    48    55   1 ;    C17 - H27
    48    65   1 ;    C17 - C19
    49    52   1 ;    H22 - H25
    49    56   1 ;    H22 - O12
    49    65   1 ;    H22 - C19
    50    51   1 ;    H23 - H24
    50    53   1 ;    H23 - H26
    50    54   1 ;    H23 - O11
    50    58   1 ;    H23 - O13
    50    59   1 ;    H23 - C18
    51    52   1 ;    H24 - H25
    51    55   1 ;    H24 - H27
    51    56   1 ;    H24 - O12
    52    54   1 ;    H25 - O11
    52    57   1 ;    H25 - H28
    52    58   1 ;    H25 - O13
    52    64   1 ;    H25 - O15
    53    60   1 ;    H26 - H29
    53    61   1 ;    H26 - H30
    53    62   1 ;    H26 - O14
    54    56   1 ;    O11 - O12
    56    58   1 ;    O12 - O13
    56    64   1 ;    O12 - O15
    58    60   1 ;    O13 - H29
    58    61   1 ;    O13 - H30
    58    62   1 ;    O13 - O14
    58    65   1 ;    O13 - C19
    60    63   1 ;    H29 - H31
    61    63   1 ;    H30 - H31
    64    66   1 ;    O15 - C20
    64    70   1 ;    O15 - H32
    64    72   1 ;    O15 - H34
    64    75   1 ;    O15 - O16
    64    76   1 ;    O15 - C24
    64    83   1 ;    O15 - O19
    65    69   1 ;    C19 - C23
    65    71   1 ;    C19 - H33
    65    77   1 ;    C19 - H37
    65    78   1 ;    C19 - H38
    65    79   1 ;    C19 - O17
    65    81   1 ;    C19 - O18
    65    84   1 ;    C19 - H41
    66    68   1 ;    C20 - C22
    66    74   1 ;    C20 - H36
    66    84   1 ;    C20 - H41
    66    86   1 ;    C20 - C25
    67    72   1 ;    C21 - H34
    67    73   1 ;    C21 - H35
    67    75   1 ;    C21 - O16
    67    76   1 ;    C21 - C24
    67    82   1 ;    C21 - H40
    67    85   1 ;    C21 - O20
    68    70   1 ;    C22 - H32
    68    73   1 ;    C22 - H35
    68    80   1 ;    C22 - H39
    68    83   1 ;    C22 - O19
    68    85   1 ;    C22 - O20
    69    70   1 ;    C23 - H32
    69    72   1 ;    C23 - H34
    69    76   1 ;    C23 - C24
    69    82   1 ;    C23 - H40
    69    83   1 ;    C23 - O19
    69    88   1 ;    C23 - C27
    69    89   1 ;    C23 - C28
    69    92   1 ;    C23 - H43
    70    71   1 ;    H32 - H33
    70    74   1 ;    H32 - H36
    70    81   1 ;    H32 - O18
    70    84   1 ;    H32 - H41
    71    73   1 ;    H33 - H35
    71    75   1 ;    H33 - O16
    71    82   1 ;    H33 - H40
    71    83   1 ;    H33 - O19
    71    85   1 ;    H33 - O20
    72    74   1 ;    H34 - H36
    72    77   1 ;    H34 - H37
    72    78   1 ;    H34 - H38
    72    79   1 ;    H34 - O17
    73    81   1 ;    H35 - O18
    73    86   1 ;    H35 - C25
    74    75   1 ;    H36 - O16
    74    76   1 ;    H36 - C24
    74    83   1 ;    H36 - O19
    75    77   1 ;    O16 - H37
    75    78   1 ;    O16 - H38
    75    79   1 ;    O16 - O17
    75    81   1 ;    O16 - O18
    75    86   1 ;    O16 - C25
    77    80   1 ;    H37 - H39
    78    80   1 ;    H38 - H39
    81    83   1 ;    O18 - O19
    81    85   1 ;    O18 - O20
    85    90   1 ;    O20 - C29
    85    93   1 ;    O20 - H44
    85    95   1 ;    O20 - H46
    85    96   1 ;    O20 - O21
    85   100   1 ;    O20 - O23
    85   101   1 ;    O20 - C30
    86    87   1 ;    C25 - C26
    86    94   1 ;    C25 - H45
    86    97   1 ;    C25 - H47
    86    98   1 ;    C25 - O22
    86   102   1 ;    C25 - H49
    86   103   1 ;    C25 - H50
    86   104   1 ;    C25 - O24
    87    93   1 ;    C26 - H44
    87    95   1 ;    C26 - H46
    87    96   1 ;    C26 - O21
    87    99   1 ;    C26 - H48
    87   101   1 ;    C26 - C30
    87   109   1 ;    C26 - C33
    87   110   1 ;    C26 - C34
    87   116   1 ;    C26 - H56
    88    90   1 ;    C27 - C29
    88    91   1 ;    C27 - H42
    88    93   1 ;    C27 - H44
    88    96   1 ;    C27 - O21
    88   105   1 ;    C27 - H51
    88   106   1 ;    C27 - O25
    89    91   1 ;    C28 - H42
    89    95   1 ;    C28 - H46
    89    99   1 ;    C28 - H48
    89   100   1 ;    C28 - O23
    89   101   1 ;    C28 - C30
    89   106   1 ;    C28 - O25
    90    92   1 ;    C29 - H43
    90    97   1 ;    C29 - H47
    90   107   1 ;    C29 - C31
    91    94   1 ;    H42 - H45
    91    98   1 ;    H42 - O22
    91   107   1 ;    H42 - C31
    92    93   1 ;    H43 - H44
    92    95   1 ;    H43 - H46
    92    96   1 ;    H43 - O21
    92   100   1 ;    H43 - O23
    92   101   1 ;    H43 - C30
    93    94   1 ;    H44 - H45
    93    97   1 ;    H44 - H47
    93    98   1 ;    H44 - O22
    94    96   1 ;    H45 - O21
    94    99   1 ;    H45 - H48
    94   100   1 ;    H45 - O23
    94   106   1 ;    H45 - O25
    95   102   1 ;    H46 - H49
    95   103   1 ;    H46 - H50
    95   104   1 ;    H46 - O24
    96    98   1 ;    O21 - O22
    98   100   1 ;    O22 - O23
    98   106   1 ;    O22 - O25
   100   102   1 ;    O23 - H49
   100   103   1 ;    O23 - H50
   100   104   1 ;    O23 - O24
   100   107   1 ;    O23 - C31
   102   105   1 ;    H49 - H51
   103   105   1 ;    H50 - H51
   106   108   1 ;    O25 - C32
   106   112   1 ;    O25 - H52
   106   114   1 ;    O25 - H54
   106   117   1 ;    O25 - O26
   106   118   1 ;    O25 - C36
   106   125   1 ;    O25 - O29
   107   111   1 ;    C31 - C35
   107   113   1 ;    C31 - H53
   107   119   1 ;    C31 - H57
   107   120   1 ;    C31 - H58
   107   121   1 ;    C31 - O27
   107   123   1 ;    C31 - O28
   107   126   1 ;    C31 - H61
   108   110   1 ;    C32 - C34
   108   116   1 ;    C32 - H56
   108   126   1 ;    C32 - H61
   108   128   1 ;    C32 - C37
   109   114   1 ;    C33 - H54
   109   115   1 ;    C33 - H55
   109   117   1 ;    C33 - O26
   109   118   1 ;    C33 - C36
   109   124   1 ;    C33 - H60
   109   127   1 ;    C33 - O30
   110   112   1 ;    C34 - H52
   110   115   1 ;    C34 - H55
   110   122   1 ;    C34 - H59
   110   125   1 ;    C34 - O29
   110   127   1 ;    C34 - O30
   111   112   1 ;    C35 - H52
   111   114   1 ;    C35 - H54
   111   118   1 ;    C35 - C36
   111   124   1 ;    C35 - H60
   111   125   1 ;    C35 - O29
   111   130   1 ;    C35 - C39
   111   131   1 ;    C35 - C40
   111   134   1 ;    C35 - H63
   112   113   1 ;    H52 - H53
   112   116   1 ;    H52 - H56
   112   123   1 ;    H52 - O28
   112   126   1 ;    H52 - H61
   113   115   1 ;    H53 - H55
   113   117   1 ;    H53 - O26
   113   124   1 ;    H53 - H60
   113   125   1 ;    H53 - O29
   113   127   1 ;    H53 - O30
   114   116   1 ;    H54 - H56
   114   119   1 ;    H54 - H57
   114   120   1 ;    H54 - H58
   114   121   1 ;    H54 - O27
   115   123   1 ;    H55 - O28
   115   128   1 ;    H55 - C37
   116   117   1 ;    H56 - O26
   116   118   1 ;    H56 - C36
   116   125   1 ;    H56 - O29
   117   119   1 ;    O26 - H57
   117   120   1 ;    O26 - H58
   117   121   1 ;    O26 - O27
   117   123   1 ;    O26 - O28
   117   128   1 ;    O26 - C37
   119   122   1 ;    H57 - H59
   120   122   1 ;    H58 - H59
   123   125   1 ;    O28 - O29
   123   127   1 ;    O28 - O30
   127   132   1 ;    O30 - C41
   127   135   1 ;    O30 - H64
   127   137   1 ;    O30 - H66
   127   138   1 ;    O30 - O31
   127   142   1 ;    O30 - O33
   127   143   1 ;    O30 - C42
   128   129   1 ;    C37 - C38
   128   136   1 ;    C37 - H65
   128   139   1 ;    C37 - H67
   128   140   1 ;    C37 - O32
   128   144   1 ;    C37 - H69
   128   145   1 ;    C37 - H70
   128   146   1 ;    C37 - O34
   129   135   1 ;    C38 - H64
   129   137   1 ;    C38 - H66
   129   138   1 ;    C38 - O31
   129   141   1 ;    C38 - H68
   129   143   1 ;    C38 - C42
   129   151   1 ;    C38 - C45
   129   152   1 ;    C38 - C46
   129   158   1 ;    C38 - H76
   130   132   1 ;    C39 - C41
   130   133   1 ;    C39 - H62
   130   135   1 ;    C39 - H64
   130   138   1 ;    C39 - O31
   130   147   1 ;    C39 - H71
   130   148   1 ;    C39 - O35
   131   133   1 ;    C40 - H62
   131   137   1 ;    C40 - H66
   131   141   1 ;    C40 - H68
   131   142   1 ;    C40 - O33
   131   143   1 ;    C40 - C42
   131   148   1 ;    C40 - O35
   132   134   1 ;    C41 - H63
   132   139   1 ;    C41 - H67
   132   149   1 ;    C41 - C43
   133   136   1 ;    H62 - H65
   133   140   1 ;    H62 - O32
   133   149   1 ;    H62 - C43
   134   135   1 ;    H63 - H64
   134   137   1 ;    H63 - H66
   134   138   1 ;    H63 - O31
   134   142   1 ;    H63 - O33
   134   143   1 ;    H63 - C42
   135   136   1 ;    H64 - H65
   135   139   1 ;    H64 - H67
   135   140   1 ;    H64 - O32
   136   138   1 ;    H65 - O31
   136   141   1 ;    H65 - H68
   136   142   1 ;    H65 - O33
   136   148   1 ;    H65 - O35
   137   144   1 ;    H66 - H69
   137   145   1 ;    H66 - H70
   137   146   1 ;    H66 - O34
   138   140   1 ;    O31 - O32
   140   142   1 ;    O32 - O33
   140   148   1 ;    O32 - O35
   142   144   1 ;    O33 - H69
   142   145   1 ;    O33 - H70
   142   146   1 ;    O33 - O34
   142   149   1 ;    O33 - C43
   144   147   1 ;    H69 - H71
   145   147   1 ;    H70 - H71
   148   150   1 ;    O35 - C44
   148   154   1 ;    O35 - H72
   148   156   1 ;    O35 - H74
   148   159   1 ;    O35 - O36
   148   160   1 ;    O35 - C48
   148   167   1 ;    O35 - O39
   149   153   1 ;    C43 - C47
   149   155   1 ;    C43 - H73
   149   161   1 ;    C43 - H77
   149   162   1 ;    C43 - H78
   149   163   1 ;    C43 - O37
   149   165   1 ;    C43 - O38
   149   168   1 ;    C43 - H81
   150   152   1 ;    C44 - C46
   150   158   1 ;    C44 - H76
   150   168   1 ;    C44 - H81
   150   170   1 ;    C44 - C49
   151   156   1 ;    C45 - H74
   151   157   1 ;    C45 - H75
   151   159   1 ;    C45 - O36
   151   160   1 ;    C45 - C48
   151   166   1 ;    C45 - H80
   151   169   1 ;    C45 - O40
   152   154   1 ;    C46 - H72
   152   157   1 ;    C46 - H75
   152   164   1 ;    C46 - H79
   152   167   1 ;    C46 - O39
   152   169   1 ;    C46 - O40
   153   154   1 ;    C47 - H72
   153   156   1 ;    C47 - H74
   153   160   1 ;    C47 - C48
   153   166   1 ;    C47 - H80
   153   167   1 ;    C47 - O39
   153   172   1 ;    C47 - C51
   153   173   1 ;    C47 - C52
   153   176   1 ;    C47 - H83
   154   155   1 ;    H72 - H73
   154   158   1 ;    H72 - H76
   154   165   1 ;    H72 - O38
   154   168   1 ;    H72 - H81
   155   157   1 ;    H73 - H75
   155   159   1 ;    H73 - O36
   155   166   1 ;    H73 - H80
   155   167   1 ;    H73 - O39
   155   169   1 ;    H73 - O40
   156   158   1 ;    H74 - H76
   156   161   1 ;    H74 - H77
   156   162   1 ;    H74 - H78
   156   163   1 ;    H74 - O37
   157   165   1 ;    H75 - O38
   157   170   1 ;    H75 - C49
   158   159   1 ;    H76 - O36
   158   160   1 ;    H76 - C48
   158   167   1 ;    H76 - O39
   159   161   1 ;    O36 - H77
   159   162   1 ;    O36 - H78
   159   163   1 ;    O36 - O37
   159   165   1 ;    O36 - O38
   159   170   1 ;    O36 - C49
   161   164   1 ;    H77 - H79
   162   164   1 ;    H78 - H79
   165   167   1 ;    O38 - O39
   165   169   1 ;    O38 - O40
   169   174   1 ;    O40 - C53
   169   177   1 ;    O40 - H84
   169   179   1 ;    O40 - H86
   169   180   1 ;    O40 - O41
   169   184   1 ;    O40 - O43
   169   185   1 ;    O40 - C54
   170   171   1 ;    C49 - C50
   170   178   1 ;    C49 - H85
   170   181   1 ;    C49 - H87
   170   182   1 ;    C49 - O42
   170   186   1 ;    C49 - H89
   170   187   1 ;    C49 - H90
   170   188   1 ;    C49 - O44
   171   177   1 ;    C50 - H84
   171   179   1 ;    C50 - H86
   171   180   1 ;    C50 - O41
   171   183   1 ;    C50 - H88
   171   185   1 ;    C50 - C54
   171   193   1 ;    C50 - C57
   171   194   1 ;    C50 - C58
   171   200   1 ;    C50 - H96
   172   174   1 ;    C51 - C53
   172   175   1 ;    C51 - H82
   172   177   1 ;    C51 - H84
   172   180   1 ;    C51 - O41
   172   189   1 ;    C51 - H91
   172   190   1 ;    C51 - O45
   173   175   1 ;    C52 - H82
   173   179   1 ;    C52 - H86
   173   183   1 ;    C52 - H88
   173   184   1 ;    C52 - O43
   173   185   1 ;    C52 - C54
   173   190   1 ;    C52 - O45
   174   176   1 ;    C53 - H83
   174   181   1 ;    C53 - H87
   174   191   1 ;    C53 - C55
   175   178   1 ;    H82 - H85
   175   182   1 ;    H82 - O42
   175   191   1 ;    H82 - C55
   176   177   1 ;    H83 - H84
   176   179   1 ;    H83 - H86
   176   180   1 ;    H83 - O41
   176   184   1 ;    H83 - O43
   176   185   1 ;    H83 - C54
   177   178   1 ;    H84 - H85
   177   181   1 ;    H84 - H87
   177   182   1 ;    H84 - O42
   178   180   1 ;    H85 - O41
   178   183   1 ;    H85 - H88
   178   184   1 ;    H85 - O43
   178   190   1 ;    H85 - O45
   179   186   1 ;    H86 - H89
   179   187   1 ;    H86 - H90
   179   188   1 ;    H86 - O44
   180   182   1 ;    O41 - O42
   182   184   1 ;    O42 - O43
   182   190   1 ;    O42 - O45
   184   186   1 ;    O43 - H89
   184   187   1 ;    O43 - H90
   184   188   1 ;    O43 - O44
   184   191   1 ;    O43 - C55
   186   189   1 ;    H89 - H91
   187   189   1 ;    H90 - H91
   190   192   1 ;    O45 - C56
   190   196   1 ;    O45 - H92
   190   198   1 ;    O45 - H94
   190   201   1 ;    O45 - O46
   190   202   1 ;    O45 - C60
   190   209   1 ;    O45 - O49
   191   195   1 ;    C55 - C59
   191   197   1 ;    C55 - H93
   191   203   1 ;    C55 - H97
   191   204   1 ;    C55 - H98
   191   205   1 ;    C55 - O47
   191   207   1 ;    C55 - O48
   191   210   1 ;    C55 - H101
   192   194   1 ;    C56 - C58
   192   200   1 ;    C56 - H96
   192   210   1 ;    C56 - H101
   192   212   1 ;    C56 - H102
   193   198   1 ;    C57 - H94
   193   199   1 ;    C57 - H95
   193   201   1 ;    C57 - O46
   193   202   1 ;    C57 - C60
   193   208   1 ;    C57 - H100
   193   211   1 ;    C57 - O50
   194   196   1 ;    C58 - H92
   194   199   1 ;    C58 - H95
   194   206   1 ;    C58 - H99
   194   209   1 ;    C58 - O49
   194   211   1 ;    C58 - O50
   195   196   1 ;    C59 - H92
   195   198   1 ;    C59 - H94
   195   202   1 ;    C59 - C60
   195   208   1 ;    C59 - H100
   195   209   1 ;    C59 - O49
   196   197   1 ;    H92 - H93
   196   200   1 ;    H92 - H96
   196   207   1 ;    H92 - O48
   196   210   1 ;    H92 - H101
   197   199   1 ;    H93 - H95
   197   201   1 ;    H93 - O46
   197   208   1 ;    H93 - H100
   197   209   1 ;    H93 - O49
   197   211   1 ;    H93 - O50
   198   200   1 ;    H94 - H96
   198   203   1 ;    H94 - H97
   198   204   1 ;    H94 - H98
   198   205   1 ;    H94 - O47
   199   207   1 ;    H95 - O48
   199   212   1 ;    H95 - H102
   200   201   1 ;    H96 - O46
   200   202   1 ;    H96 - C60
   200   209   1 ;    H96 - O49
   201   203   1 ;    O46 - H97
   201   204   1 ;    O46 - H98
   201   205   1 ;    O46 - O47
   201   207   1 ;    O46 - O48
   201   212   1 ;    O46 - H102
   203   206   1 ;    H97 - H99
   204   206   1 ;    H98 - H99
   207   209   1 ;    O48 - O49
   207   211   1 ;    O48 - O50
   213   218   1 ;     H1 - C5
   213   221   1 ;     H1 - H4
   213   223   1 ;     H1 - H6
   213   224   1 ;     H1 - O1
   213   228   1 ;     H1 - O3
   213   229   1 ;     H1 - C6
   214   215   1 ;     C1 - C2
   214   222   1 ;     C1 - H5
   214   225   1 ;     C1 - H7
   214   226   1 ;     C1 - O2
   214   230   1 ;     C1 - H9
   214   231   1 ;     C1 - H10
   214   232   1 ;     C1 - O4
   215   221   1 ;     C2 - H4
   215   223   1 ;     C2 - H6
   215   224   1 ;     C2 - O1
   215   227   1 ;     C2 - H8
   215   229   1 ;     C2 - C6
   215   237   1 ;     C2 - C9
   215   238   1 ;     C2 - C10
   215   244   1 ;     C2 - H16
   216   218   1 ;     C3 - C5
   216   219   1 ;     C3 - H2
   216   221   1 ;     C3 - H4
   216   224   1 ;     C3 - O1
   216   233   1 ;     C3 - H11
   216   234   1 ;     C3 - O5
   217   219   1 ;     C4 - H2
   217   223   1 ;     C4 - H6
   217   227   1 ;     C4 - H8
   217   228   1 ;     C4 - O3
   217   229   1 ;     C4 - C6
   217   234   1 ;     C4 - O5
   218   220   1 ;     C5 - H3
   218   225   1 ;     C5 - H7
   218   235   1 ;     C5 - C7
   219   222   1 ;     H2 - H5
   219   226   1 ;     H2 - O2
   219   235   1 ;     H2 - C7
   220   221   1 ;     H3 - H4
   220   223   1 ;     H3 - H6
   220   224   1 ;     H3 - O1
   220   228   1 ;     H3 - O3
   220   229   1 ;     H3 - C6
   221   222   1 ;     H4 - H5
   221   225   1 ;     H4 - H7
   221   226   1 ;     H4 - O2
   222   224   1 ;     H5 - O1
   222   227   1 ;     H5 - H8
   222   228   1 ;     H5 - O3
   222   234   1 ;     H5 - O5
   223   230   1 ;     H6 - H9
   223   231   1 ;     H6 - H10
   223   232   1 ;     H6 - O4
   224   226   1 ;     O1 - O2
   226   228   1 ;     O2 - O3
   226   234   1 ;     O2 - O5
   228   230   1 ;     O3 - H9
   228   231   1 ;     O3 - H10
   228   232   1 ;     O3 - O4
   228   235   1 ;     O3 - C7
   230   233   1 ;     H9 - H11
   231   233   1 ;    H10 - H11
   234   236   1 ;     O5 - C8
   234   240   1 ;     O5 - H12
   234   242   1 ;     O5 - H14
   234   245   1 ;     O5 - O6
   234   246   1 ;     O5 - C12
   234   253   1 ;     O5 - O9
   235   239   1 ;     C7 - C11
   235   241   1 ;     C7 - H13
   235   247   1 ;     C7 - H17
   235   248   1 ;     C7 - H18
   235   249   1 ;     C7 - O7
   235   251   1 ;     C7 - O8
   235   254   1 ;     C7 - H21
   236   238   1 ;     C8 - C10
   236   244   1 ;     C8 - H16
   236   254   1 ;     C8 - H21
   236   256   1 ;     C8 - C13
   237   242   1 ;     C9 - H14
   237   243   1 ;     C9 - H15
   237   245   1 ;     C9 - O6
   237   246   1 ;     C9 - C12
   237   252   1 ;     C9 - H20
   237   255   1 ;     C9 - O10
   238   240   1 ;    C10 - H12
   238   243   1 ;    C10 - H15
   238   250   1 ;    C10 - H19
   238   253   1 ;    C10 - O9
   238   255   1 ;    C10 - O10
   239   240   1 ;    C11 - H12
   239   242   1 ;    C11 - H14
   239   246   1 ;    C11 - C12
   239   252   1 ;    C11 - H20
   239   253   1 ;    C11 - O9
   239   258   1 ;    C11 - C15
   239   259   1 ;    C11 - C16
   239   262   1 ;    C11 - H23
   240   241   1 ;    H12 - H13
   240   244   1 ;    H12 - H16
   240   251   1 ;    H12 - O8
   240   254   1 ;    H12 - H21
   241   243   1 ;    H13 - H15
   241   245   1 ;    H13 - O6
   241   252   1 ;    H13 - H20
   241   253   1 ;    H13 - O9
   241   255   1 ;    H13 - O10
   242   244   1 ;    H14 - H16
   242   247   1 ;    H14 - H17
   242   248   1 ;    H14 - H18
   242   249   1 ;    H14 - O7
   243   251   1 ;    H15 - O8
   243   256   1 ;    H15 - C13
   244   245   1 ;    H16 - O6
   244   246   1 ;    H16 - C12
   244   253   1 ;    H16 - O9
   245   247   1 ;     O6 - H17
   245   248   1 ;     O6 - H18
   245   249   1 ;     O6 - O7
   245   251   1 ;     O6 - O8
   245   256   1 ;     O6 - C13
   247   250   1 ;    H17 - H19
   248   250   1 ;    H18 - H19
   251   253   1 ;     O8 - O9
   251   255   1 ;     O8 - O10
   255   260   1 ;    O10 - C17
   255   263   1 ;    O10 - H24
   255   265   1 ;    O10 - H26
   255   266   1 ;    O10 - O11
   255   270   1 ;    O10 - O13
   255   271   1 ;    O10 - C18
   256   257   1 ;    C13 - C14
   256   264   1 ;    C13 - H25
   256   267   1 ;    C13 - H27
   256   268   1 ;    C13 - O12
   256   272   1 ;    C13 - H29
   256   273   1 ;    C13 - H30
   256   274   1 ;    C13 - O14
   257   263   1 ;    C14 - H24
   257   265   1 ;    C14 - H26
   257   266   1 ;    C14 - O11
   257   269   1 ;    C14 - H28
   257   271   1 ;    C14 - C18
   257   279   1 ;    C14 - C21
   257   280   1 ;    C14 - C22
   257   286   1 ;    C14 - H36
   258   260   1 ;    C15 - C17
   258   261   1 ;    C15 - H22
   258   263   1 ;    C15 - H24
   258   266   1 ;    C15 - O11
   258   275   1 ;    C15 - H31
   258   276   1 ;    C15 - O15
   259   261   1 ;    C16 - H22
   259   265   1 ;    C16 - H26
   259   269   1 ;    C16 - H28
   259   270   1 ;    C16 - O13
   259   271   1 ;    C16 - C18
   259   276   1 ;    C16 - O15
   260   262   1 ;    C17 - H23
   260   267   1 ;    C17 - H27
   260   277   1 ;    C17 - C19
   261   264   1 ;    H22 - H25
   261   268   1 ;    H22 - O12
   261   277   1 ;    H22 - C19
   262   263   1 ;    H23 - H24
   262   265   1 ;    H23 - H26
   262   266   1 ;    H23 - O11
   262   270   1 ;    H23 - O13
   262   271   1 ;    H23 - C18
   263   264   1 ;    H24 - H25
   263   267   1 ;    H24 - H27
   263   268   1 ;    H24 - O12
   264   266   1 ;    H25 - O11
   264   269   1 ;    H25 - H28
   264   270   1 ;    H25 - O13
   264   276   1 ;    H25 - O15
   265   272   1 ;    H26 - H29
   265   273   1 ;    H26 - H30
   265   274   1 ;    H26 - O14
   266   268   1 ;    O11 - O12
   268   270   1 ;    O12 - O13
   268   276   1 ;    O12 - O15
   270   272   1 ;    O13 - H29
   270   273   1 ;    O13 - H30
   270   274   1 ;    O13 - O14
   270   277   1 ;    O13 - C19
   272   275   1 ;    H29 - H31
   273   275   1 ;    H30 - H31
   276   278   1 ;    O15 - C20
   276   282   1 ;    O15 - H32
   276   284   1 ;    O15 - H34
   276   287   1 ;    O15 - O16
   276   288   1 ;    O15 - C24
   276   295   1 ;    O15 - O19
   277   281   1 ;    C19 - C23
   277   283   1 ;    C19 - H33
   277   289   1 ;    C19 - H37
   277   290   1 ;    C19 - H38
   277   291   1 ;    C19 - O17
   277   293   1 ;    C19 - O18
   277   296   1 ;    C19 - H41
   278   280   1 ;    C20 - C22
   278   286   1 ;    C20 - H36
   278   296   1 ;    C20 - H41
   278   298   1 ;    C20 - C25
   279   284   1 ;    C21 - H34
   279   285   1 ;    C21 - H35
   279   287   1 ;    C21 - O16
   279   288   1 ;    C21 - C24
   279   294   1 ;    C21 - H40
   279   297   1 ;    C21 - O20
   280   282   1 ;    C22 - H32
   280   285   1 ;    C22 - H35
   280   292   1 ;    C22 - H39
   280   295   1 ;    C22 - O19
   280   297   1 ;    C22 - O20
   281   282   1 ;    C23 - H32
   281   284   1 ;    C23 - H34
   281   288   1 ;    C23 - C24
   281   294   1 ;    C23 - H40
   281   295   1 ;    C23 - O19
   281   300   1 ;    C23 - C27
   281   301   1 ;    C23 - C28
   281   304   1 ;    C23 - H43
   282   283   1 ;    H32 - H33
   282   286   1 ;    H32 - H36
   282   293   1 ;    H32 - O18
   282   296   1 ;    H32 - H41
   283   285   1 ;    H33 - H35
   283   287   1 ;    H33 - O16
   283   294   1 ;    H33 - H40
   283   295   1 ;    H33 - O19
   283   297   1 ;    H33 - O20
   284   286   1 ;    H34 - H36
   284   289   1 ;    H34 - H37
   284   290   1 ;    H34 - H38
   284   291   1 ;    H34 - O17
   285   293   1 ;    H35 - O18
   285   298   1 ;    H35 - C25
   286   287   1 ;    H36 - O16
   286   288   1 ;    H36 - C24
   286   295   1 ;    H36 - O19
   287   289   1 ;    O16 - H37
   287   290   1 ;    O16 - H38
   287   291   1 ;    O16 - O17
   287   293   1 ;    O16 - O18
   287   298   1 ;    O16 - C25
   289   292   1 ;    H37 - H39
   290   292   1 ;    H38 - H39
   293   295   1 ;    O18 - O19
   293   297   1 ;    O18 - O20
   297   302   1 ;    O20 - C29
   297   305   1 ;    O20 - H44
   297   307   1 ;    O20 - H46
   297   308   1 ;    O20 - O21
   297   312   1 ;    O20 - O23
   297   313   1 ;    O20 - C30
   298   299   1 ;    C25 - C26
   298   306   1 ;    C25 - H45
   298   309   1 ;    C25 - H47
   298   310   1 ;    C25 - O22
   298   314   1 ;    C25 - H49
   298   315   1 ;    C25 - H50
   298   316   1 ;    C25 - O24
   299   305   1 ;    C26 - H44
   299   307   1 ;    C26 - H46
   299   308   1 ;    C26 - O21
   299   311   1 ;    C26 - H48
   299   313   1 ;    C26 - C30
   299   321   1 ;    C26 - C33
   299   322   1 ;    C26 - C34
   299   328   1 ;    C26 - H56
   300   302   1 ;    C27 - C29
   300   303   1 ;    C27 - H42
   300   305   1 ;    C27 - H44
   300   308   1 ;    C27 - O21
   300   317   1 ;    C27 - H51
   300   318   1 ;    C27 - O25
   301   303   1 ;    C28 - H42
   301   307   1 ;    C28 - H46
   301   311   1 ;    C28 - H48
   301   312   1 ;    C28 - O23
   301   313   1 ;    C28 - C30
   301   318   1 ;    C28 - O25
   302   304   1 ;    C29 - H43
   302   309   1 ;    C29 - H47
   302   319   1 ;    C29 - C31
   303   306   1 ;    H42 - H45
   303   310   1 ;    H42 - O22
   303   319   1 ;    H42 - C31
   304   305   1 ;    H43 - H44
   304   307   1 ;    H43 - H46
   304   308   1 ;    H43 - O21
   304   312   1 ;    H43 - O23
   304   313   1 ;    H43 - C30
   305   306   1 ;    H44 - H45
   305   309   1 ;    H44 - H47
   305   310   1 ;    H44 - O22
   306   308   1 ;    H45 - O21
   306   311   1 ;    H45 - H48
   306   312   1 ;    H45 - O23
   306   318   1 ;    H45 - O25
   307   314   1 ;    H46 - H49
   307   315   1 ;    H46 - H50
   307   316   1 ;    H46 - O24
   308   310   1 ;    O21 - O22
   310   312   1 ;    O22 - O23
   310   318   1 ;    O22 - O25
   312   314   1 ;    O23 - H49
   312   315   1 ;    O23 - H50
   312   316   1 ;    O23 - O24
   312   319   1 ;    O23 - C31
   314   317   1 ;    H49 - H51
   315   317   1 ;    H50 - H51
   318   320   1 ;    O25 - C32
   318   324   1 ;    O25 - H52
   318   326   1 ;    O25 - H54
   318   329   1 ;    O25 - O26
   318   330   1 ;    O25 - C36
   318   337   1 ;    O25 - O29
   319   323   1 ;    C31 - C35
   319   325   1 ;    C31 - H53
   319   331   1 ;    C31 - H57
   319   332   1 ;    C31 - H58
   319   333   1 ;    C31 - O27
   319   335   1 ;    C31 - O28
   319   338   1 ;    C31 - H61
   320   322   1 ;    C32 - C34
   320   328   1 ;    C32 - H56
   320   338   1 ;    C32 - H61
   320   340   1 ;    C32 - C37
   321   326   1 ;    C33 - H54
   321   327   1 ;    C33 - H55
   321   329   1 ;    C33 - O26
   321   330   1 ;    C33 - C36
   321   336   1 ;    C33 - H60
   321   339   1 ;    C33 - O30
   322   324   1 ;    C34 - H52
   322   327   1 ;    C34 - H55
   322   334   1 ;    C34 - H59
   322   337   1 ;    C34 - O29
   322   339   1 ;    C34 - O30
   323   324   1 ;    C35 - H52
   323   326   1 ;    C35 - H54
   323   330   1 ;    C35 - C36
   323   336   1 ;    C35 - H60
   323   337   1 ;    C35 - O29
   323   342   1 ;    C35 - C39
   323   343   1 ;    C35 - C40
   323   346   1 ;    C35 - H63
   324   325   1 ;    H52 - H53
   324   328   1 ;    H52 - H56
   324   335   1 ;    H52 - O28
   324   338   1 ;    H52 - H61
   325   327   1 ;    H53 - H55
   325   329   1 ;    H53 - O26
   325   336   1 ;    H53 - H60
   325   337   1 ;    H53 - O29
   325   339   1 ;    H53 - O30
   326   328   1 ;    H54 - H56
   326   331   1 ;    H54 - H57
   326   332   1 ;    H54 - H58
   326   333   1 ;    H54 - O27
   327   335   1 ;    H55 - O28
   327   340   1 ;    H55 - C37
   328   329   1 ;    H56 - O26
   328   330   1 ;    H56 - C36
   328   337   1 ;    H56 - O29
   329   331   1 ;    O26 - H57
   329   332   1 ;    O26 - H58
   329   333   1 ;    O26 - O27
   329   335   1 ;    O26 - O28
   329   340   1 ;    O26 - C37
   331   334   1 ;    H57 - H59
   332   334   1 ;    H58 - H59
   335   337   1 ;    O28 - O29
   335   339   1 ;    O28 - O30
   339   344   1 ;    O30 - C41
   339   347   1 ;    O30 - H64
   339   349   1 ;    O30 - H66
   339   350   1 ;    O30 - O31
   339   354   1 ;    O30 - O33
   339   355   1 ;    O30 - C42
   340   341   1 ;    C37 - C38
   340   348   1 ;    C37 - H65
   340   351   1 ;    C37 - H67
   340   352   1 ;    C37 - O32
   340   356   1 ;    C37 - H69
   340   357   1 ;    C37 - H70
   340   358   1 ;    C37 - O34
   341   347   1 ;    C38 - H64
   341   349   1 ;    C38 - H66
   341   350   1 ;    C38 - O31
   341   353   1 ;    C38 - H68
   341   355   1 ;    C38 - C42
   341   363   1 ;    C38 - C45
   341   364   1 ;    C38 - C46
   341   370   1 ;    C38 - H76
   342   344   1 ;    C39 - C41
   342   345   1 ;    C39 - H62
   342   347   1 ;    C39 - H64
   342   350   1 ;    C39 - O31
   342   359   1 ;    C39 - H71
   342   360   1 ;    C39 - O35
   343   345   1 ;    C40 - H62
   343   349   1 ;    C40 - H66
   343   353   1 ;    C40 - H68
   343   354   1 ;    C40 - O33
   343   355   1 ;    C40 - C42
   343   360   1 ;    C40 - O35
   344   346   1 ;    C41 - H63
   344   351   1 ;    C41 - H67
   344   361   1 ;    C41 - C43
   345   348   1 ;    H62 - H65
   345   352   1 ;    H62 - O32
   345   361   1 ;    H62 - C43
   346   347   1 ;    H63 - H64
   346   349   1 ;    H63 - H66
   346   350   1 ;    H63 - O31
   346   354   1 ;    H63 - O33
   346   355   1 ;    H63 - C42
   347   348   1 ;    H64 - H65
   347   351   1 ;    H64 - H67
   347   352   1 ;    H64 - O32
   348   350   1 ;    H65 - O31
   348   353   1 ;    H65 - H68
   348   354   1 ;    H65 - O33
   348   360   1 ;    H65 - O35
   349   356   1 ;    H66 - H69
   349   357   1 ;    H66 - H70
   349   358   1 ;    H66 - O34
   350   352   1 ;    O31 - O32
   352   354   1 ;    O32 - O33
   352   360   1 ;    O32 - O35
   354   356   1 ;    O33 - H69
   354   357   1 ;    O33 - H70
   354   358   1 ;    O33 - O34
   354   361   1 ;    O33 - C43
   356   359   1 ;    H69 - H71
   357   359   1 ;    H70 - H71
   360   362   1 ;    O35 - C44
   360   366   1 ;    O35 - H72
   360   368   1 ;    O35 - H74
   360   371   1 ;    O35 - O36
   360   372   1 ;    O35 - C48
   360   379   1 ;    O35 - O39
   361   365   1 ;    C43 - C47
   361   367   1 ;    C43 - H73
   361   373   1 ;    C43 - H77
   361   374   1 ;    C43 - H78
   361   375   1 ;    C43 - O37
   361   377   1 ;    C43 - O38
   361   380   1 ;    C43 - H81
   362   364   1 ;    C44 - C46
   362   370   1 ;    C44 - H76
   362   380   1 ;    C44 - H81
   362   382   1 ;    C44 - C49
   363   368   1 ;    C45 - H74
   363   369   1 ;    C45 - H75
   363   371   1 ;    C45 - O36
   363   372   1 ;    C45 - C48
   363   378   1 ;    C45 - H80
   363   381   1 ;    C45 - O40
   364   366   1 ;    C46 - H72
   364   369   1 ;    C46 - H75
   364   376   1 ;    C46 - H79
   364   379   1 ;    C46 - O39
   364   381   1 ;    C46 - O40
   365   366   1 ;    C47 - H72
   365   368   1 ;    C47 - H74
   365   372   1 ;    C47 - C48
   365   378   1 ;    C47 - H80
   365   379   1 ;    C47 - O39
   365   384   1 ;    C47 - C51
   365   385   1 ;    C47 - C52
   365   388   1 ;    C47 - H83
   366   367   1 ;    H72 - H73
   366   370   1 ;    H72 - H76
   366   377   1 ;    H72 - O38
   366   380   1 ;    H72 - H81
   367   369   1 ;    H73 - H75
   367   371   1 ;    H73 - O36
   367   378   1 ;    H73 - H80
   367   379   1 ;    H73 - O39
   367   381   1 ;    H73 - O40
   368   370   1 ;    H74 - H76
   368   373   1 ;    H74 - H77
   368   374   1 ;    H74 - H78
   368   375   1 ;    H74 - O37
   369   377   1 ;    H75 - O38
   369   382   1 ;    H75 - C49
   370   371   1 ;    H76 - O36
   370   372   1 ;    H76 - C48
   370   379   1 ;    H76 - O39
   371   373   1 ;    O36 - H77
   371   374   1 ;    O36 - H78
   371   375   1 ;    O36 - O37
   371   377   1 ;    O36 - O38
   371   382   1 ;    O36 - C49
   373   376   1 ;    H77 - H79
   374   376   1 ;    H78 - H79
   377   379   1 ;    O38 - O39
   377   381   1 ;    O38 - O40
   381   386   1 ;    O40 - C53
   381   389   1 ;    O40 - H84
   381   391   1 ;    O40 - H86
   381   392   1 ;    O40 - O41
   381   396   1 ;    O40 - O43
   381   397   1 ;    O40 - C54
   382   383   1 ;    C49 - C50
   382   390   1 ;    C49 - H85
   382   393   1 ;    C49 - H87
   382   394   1 ;    C49 - O42
   382   398   1 ;    C49 - H89
   382   399   1 ;    C49 - H90
   382   400   1 ;    C49 - O44
   383   389   1 ;    C50 - H84
   383   391   1 ;    C50 - H86
   383   392   1 ;    C50 - O41
   383   395   1 ;    C50 - H88
   383   397   1 ;    C50 - C54
   383   405   1 ;    C50 - C57
   383   406   1 ;    C50 - C58
   383   412   1 ;    C50 - H96
   384   386   1 ;    C51 - C53
   384   387   1 ;    C51 - H82
   384   389   1 ;    C51 - H84
   384   392   1 ;    C51 - O41
   384   401   1 ;    C51 - H91
   384   402   1 ;    C51 - O45
   385   387   1 ;    C52 - H82
   385   391   1 ;    C52 - H86
   385   395   1 ;    C52 - H88
   385   396   1 ;    C52 - O43
   385   397   1 ;    C52 - C54
   385   402   1 ;    C52 - O45
   386   388   1 ;    C53 - H83
   386   393   1 ;    C53 - H87
   386   403   1 ;    C53 - C55
   387   390   1 ;    H82 - H85
   387   394   1 ;    H82 - O42
   387   403   1 ;    H82 - C55
   388   389   1 ;    H83 - H84
   388   391   1 ;    H83 - H86
   388   392   1 ;    H83 - O41
   388   396   1 ;    H83 - O43
   388   397   1 ;    H83 - C54
   389   390   1 ;    H84 - H85
   389   393   1 ;    H84 - H87
   389   394   1 ;    H84 - O42
   390   392   1 ;    H85 - O41
   390   395   1 ;    H85 - H88
   390   396   1 ;    H85 - O43
   390   402   1 ;    H85 - O45
   391   398   1 ;    H86 - H89
   391   399   1 ;    H86 - H90
   391   400   1 ;    H86 - O44
   392   394   1 ;    O41 - O42
   394   396   1 ;    O42 - O43
   394   402   1 ;    O42 - O45
   396   398   1 ;    O43 - H89
   396   399   1 ;    O43 - H90
   396   400   1 ;    O43 - O44
   396   403   1 ;    O43 - C55
   398   401   1 ;    H89 - H91
   399   401   1 ;    H90 - H91
   402   404   1 ;    O45 - C56
   402   408   1 ;    O45 - H92
   402   410   1 ;    O45 - H94
   402   413   1 ;    O45 - O46
   402   414   1 ;    O45 - C60
   402   421   1 ;    O45 - O49
   403   407   1 ;    C55 - C59
   403   409   1 ;    C55 - H93
   403   415   1 ;    C55 - H97
   403   416   1 ;    C55 - H98
   403   417   1 ;    C55 - O47
   403   419   1 ;    C55 - O48
   403   422   1 ;    C55 - H101
   404   406   1 ;    C56 - C58
   404   412   1 ;    C56 - H96
   404   422   1 ;    C56 - H101
   404   424   1 ;    C56 - H102
   405   410   1 ;    C57 - H94
   405   411   1 ;    C57 - H95
   405   413   1 ;    C57 - O46
   405   414   1 ;    C57 - C60
   405   420   1 ;    C57 - H100
   405   423   1 ;    C57 - O50
   406   408   1 ;    C58 - H92
   406   411   1 ;    C58 - H95
   406   418   1 ;    C58 - H99
   406   421   1 ;    C58 - O49
   406   423   1 ;    C58 - O50
   407   408   1 ;    C59 - H92
   407   410   1 ;    C59 - H94
   407   414   1 ;    C59 - C60
   407   420   1 ;    C59 - H100
   407   421   1 ;    C59 - O49
   408   409   1 ;    H92 - H93
   408   412   1 ;    H92 - H96
   408   419   1 ;    H92 - O48
   408   422   1 ;    H92 - H101
   409   411   1 ;    H93 - H95
   409   413   1 ;    H93 - O46
   409   420   1 ;    H93 - H100
   409   421   1 ;    H93 - O49
   409   423   1 ;    H93 - O50
   410   412   1 ;    H94 - H96
   410   415   1 ;    H94 - H97
   410   416   1 ;    H94 - H98
   410   417   1 ;    H94 - O47
   411   419   1 ;    H95 - O48
   411   424   1 ;    H95 - H102
   412   413   1 ;    H96 - O46
   412   414   1 ;    H96 - C60
   412   421   1 ;    H96 - O49
   413   415   1 ;    O46 - H97
   413   416   1 ;    O46 - H98
   413   417   1 ;    O46 - O47
   413   419   1 ;    O46 - O48
   413   424   1 ;    O46 - H102
   415   418   1 ;    H97 - H99
   416   418   1 ;    H98 - H99
   419   421   1 ;    O48 - O49
   419   423   1 ;    O48 - O50
   425   430   1 ;     H1 - C5
   425   433   1 ;     H1 - H4
   425   435   1 ;     H1 - H6
   425   436   1 ;     H1 - O1
   425   440   1 ;     H1 - O3
   425   441   1 ;     H1 - C6
   426   427   1 ;     C1 - C2
   426   434   1 ;     C1 - H5
   426   437   1 ;     C1 - H7
   426   438   1 ;     C1 - O2
   426   442   1 ;     C1 - H9
   426   443   1 ;     C1 - H10
   426   444   1 ;     C1 - O4
   427   433   1 ;     C2 - H4
   427   435   1 ;     C2 - H6
   427   436   1 ;     C2 - O1
   427   439   1 ;     C2 - H8
   427   441   1 ;     C2 - C6
   427   449   1 ;     C2 - C9
   427   450   1 ;     C2 - C10
   427   456   1 ;     C2 - H16
   428   430   1 ;     C3 - C5
   428   431   1 ;     C3 - H2
   428   433   1 ;     C3 - H4
   428   436   1 ;     C3 - O1
   428   445   1 ;     C3 - H11
   428   446   1 ;     C3 - O5
   429   431   1 ;     C4 - H2
   429   435   1 ;     C4 - H6
   429   439   1 ;     C4 - H8
   429   440   1 ;     C4 - O3
   429   441   1 ;     C4 - C6
   429   446   1 ;     C4 - O5
   430   432   1 ;     C5 - H3
   430   437   1 ;     C5 - H7
   430   447   1 ;     C5 - C7
   431   434   1 ;     H2 - H5
   431   438   1 ;     H2 - O2
   431   447   1 ;     H2 - C7
   432   433   1 ;     H3 - H4
   432   435   1 ;     H3 - H6
   432   436   1 ;     H3 - O1
   432   440   1 ;     H3 - O3
   432   441   1 ;     H3 - C6
   433   434   1 ;     H4 - H5
   433   437   1 ;     H4 - H7
   433   438   1 ;     H4 - O2
   434   436   1 ;     H5 - O1
   434   439   1 ;     H5 - H8
   434   440   1 ;     H5 - O3
   434   446   1 ;     H5 - O5
   435   442   1 ;     H6 - H9
   435   443   1 ;     H6 - H10
   435   444   1 ;     H6 - O4
   436   438   1 ;     O1 - O2
   438   440   1 ;     O2 - O3
   438   446   1 ;     O2 - O5
   440   442   1 ;     O3 - H9
   440   443   1 ;     O3 - H10
   440   444   1 ;     O3 - O4
   440   447   1 ;     O3 - C7
   442   445   1 ;     H9 - H11
   443   445   1 ;    H10 - H11
   446   448   1 ;     O5 - C8
   446   452   1 ;     O5 - H12
   446   454   1 ;     O5 - H14
   446   457   1 ;     O5 - O6
   446   458   1 ;     O5 - C12
   446   465   1 ;     O5 - O9
   447   451   1 ;     C7 - C11
   447   453   1 ;     C7 - H13
   447   459   1 ;     C7 - H17
   447   460   1 ;     C7 - H18
   447   461   1 ;     C7 - O7
   447   463   1 ;     C7 - O8
   447   466   1 ;     C7 - H21
   448   450   1 ;     C8 - C10
   448   456   1 ;     C8 - H16
   448   466   1 ;     C8 - H21
   448   468   1 ;     C8 - C13
   449   454   1 ;     C9 - H14
   449   455   1 ;     C9 - H15
   449   457   1 ;     C9 - O6
   449   458   1 ;     C9 - C12
   449   464   1 ;     C9 - H20
   449   467   1 ;     C9 - O10
   450   452   1 ;    C10 - H12
   450   455   1 ;    C10 - H15
   450   462   1 ;    C10 - H19
   450   465   1 ;    C10 - O9
   450   467   1 ;    C10 - O10
   451   452   1 ;    C11 - H12
   451   454   1 ;    C11 - H14
   451   458   1 ;    C11 - C12
   451   464   1 ;    C11 - H20
   451   465   1 ;    C11 - O9
   451   470   1 ;    C11 - C15
   451   471   1 ;    C11 - C16
   451   474   1 ;    C11 - H23
   452   453   1 ;    H12 - H13
   452   456   1 ;    H12 - H16
   452   463   1 ;    H12 - O8
   452   466   1 ;    H12 - H21
   453   455   1 ;    H13 - H15
   453   457   1 ;    H13 - O6
   453   464   1 ;    H13 - H20
   453   465   1 ;    H13 - O9
   453   467   1 ;    H13 - O10
   454   456   1 ;    H14 - H16
   454   459   1 ;    H14 - H17
   454   460   1 ;    H14 - H18
   454   461   1 ;    H14 - O7
   455   463   1 ;    H15 - O8
   455   468   1 ;    H15 - C13
   456   457   1 ;    H16 - O6
   456   458   1 ;    H16 - C12
   456   465   1 ;    H16 - O9
   457   459   1 ;     O6 - H17
   457   460   1 ;     O6 - H18
   457   461   1 ;     O6 - O7
   457   463   1 ;     O6 - O8
   457   468   1 ;     O6 - C13
   459   462   1 ;    H17 - H19
   460   462   1 ;    H18 - H19
   463   465   1 ;     O8 - O9
   463   467   1 ;     O8 - O10
   467   472   1 ;    O10 - C17
   467   475   1 ;    O10 - H24
   467   477   1 ;    O10 - H26
   467   478   1 ;    O10 - O11
   467   482   1 ;    O10 - O13
   467   483   1 ;    O10 - C18
   468   469   1 ;    C13 - C14
   468   476   1 ;    C13 - H25
   468   479   1 ;    C13 - H27
   468   480   1 ;    C13 - O12
   468   484   1 ;    C13 - H29
   468   485   1 ;    C13 - H30
   468   486   1 ;    C13 - O14
   469   475   1 ;    C14 - H24
   469   477   1 ;    C14 - H26
   469   478   1 ;    C14 - O11
   469   481   1 ;    C14 - H28
   469   483   1 ;    C14 - C18
   469   491   1 ;    C14 - C21
   469   492   1 ;    C14 - C22
   469   498   1 ;    C14 - H36
   470   472   1 ;    C15 - C17
   470   473   1 ;    C15 - H22
   470   475   1 ;    C15 - H24
   470   478   1 ;    C15 - O11
   470   487   1 ;    C15 - H31
   470   488   1 ;    C15 - O15
   471   473   1 ;    C16 - H22
   471   477   1 ;    C16 - H26
   471   481   1 ;    C16 - H28
   471   482   1 ;    C16 - O13
   471   483   1 ;    C16 - C18
   471   488   1 ;    C16 - O15
   472   474   1 ;    C17 - H23
   472   479   1 ;    C17 - H27
   472   489   1 ;    C17 - C19
   473   476   1 ;    H22 - H25
   473   480   1 ;    H22 - O12
   473   489   1 ;    H22 - C19
   474   475   1 ;    H23 - H24
   474   477   1 ;    H23 - H26
   474   478   1 ;    H23 - O11
   474   482   1 ;    H23 - O13
   474   483   1 ;    H23 - C18
   475   476   1 ;    H24 - H25
   475   479   1 ;    H24 - H27
   475   480   1 ;    H24 - O12
   476   478   1 ;    H25 - O11
   476   481   1 ;    H25 - H28
   476   482   1 ;    H25 - O13
   476   488   1 ;    H25 - O15
   477   484   1 ;    H26 - H29
   477   485   1 ;    H26 - H30
   477   486   1 ;    H26 - O14
   478   480   1 ;    O11 - O12
   480   482   1 ;    O12 - O13
   480   488   1 ;    O12 - O15
   482   484   1 ;    O13 - H29
   482   485   1 ;    O13 - H30
   482   486   1 ;    O13 - O14
   482   489   1 ;    O13 - C19
   484   487   1 ;    H29 - H31
   485   487   1 ;    H30 - H31
   488   490   1 ;    O15 - C20
   488   494   1 ;    O15 - H32
   488   496   1 ;    O15 - H34
   488   499   1 ;    O15 - O16
   488   500   1 ;    O15 - C24
   488   507   1 ;    O15 - O19
   489   493   1 ;    C19 - C23
   489   495   1 ;    C19 - H33
   489   501   1 ;    C19 - H37
   489   502   1 ;    C19 - H38
   489   503   1 ;    C19 - O17
   489   505   1 ;    C19 - O18
   489   508   1 ;    C19 - H41
   490   492   1 ;    C20 - C22
   490   498   1 ;    C20 - H36
   490   508   1 ;    C20 - H41
   490   510   1 ;    C20 - C25
   491   496   1 ;    C21 - H34
   491   497   1 ;    C21 - H35
   491   499   1 ;    C21 - O16
   491   500   1 ;    C21 - C24
   491   506   1 ;    C21 - H40
   491   509   1 ;    C21 - O20
   492   494   1 ;    C22 - H32
   492   497   1 ;    C22 - H35
   492   504   1 ;    C22 - H39
   492   507   1 ;    C22 - O19
   492   509   1 ;    C22 - O20
   493   494   1 ;    C23 - H32
   493   496   1 ;    C23 - H34
   493   500   1 ;    C23 - C24
   493   506   1 ;    C23 - H40
   493   507   1 ;    C23 - O19
   493   512   1 ;    C23 - C27
   493   513   1 ;    C23 - C28
   493   516   1 ;    C23 - H43
   494   495   1 ;    H32 - H33
   494   498   1 ;    H32 - H36
   494   505   1 ;    H32 - O18
   494   508   1 ;    H32 - H41
   495   497   1 ;    H33 - H35
   495   499   1 ;    H33 - O16
   495   506   1 ;    H33 - H40
   495   507   1 ;    H33 - O19
   495   509   1 ;    H33 - O20
   496   498   1 ;    H34 - H36
   496   501   1 ;    H34 - H37
   496   502   1 ;    H34 - H38
   496   503   1 ;    H34 - O17
   497   505   1 ;    H35 - O18
   497   510   1 ;    H35 - C25
   498   499   1 ;    H36 - O16
   498   500   1 ;    H36 - C24
   498   507   1 ;    H36 - O19
   499   501   1 ;    O16 - H37
   499   502   1 ;    O16 - H38
   499   503   1 ;    O16 - O17
   499   505   1 ;    O16 - O18
   499   510   1 ;    O16 - C25
   501   504   1 ;    H37 - H39
   502   504   1 ;    H38 - H39
   505   507   1 ;    O18 - O19
   505   509   1 ;    O18 - O20
   509   514   1 ;    O20 - C29
   509   517   1 ;    O20 - H44
   509   519   1 ;    O20 - H46
   509   520   1 ;    O20 - O21
   509   524   1 ;    O20 - O23
   509   525   1 ;    O20 - C30
   510   511   1 ;    C25 - C26
   510   518   1 ;    C25 - H45
   510   521   1 ;    C25 - H47
   510   522   1 ;    C25 - O22
   510   526   1 ;    C25 - H49
   510   527   1 ;    C25 - H50
   510   528   1 ;    C25 - O24
   511   517   1 ;    C26 - H44
   511   519   1 ;    C26 - H46
   511   520   1 ;    C26 - O21
   511   523   1 ;    C26 - H48
   511   525   1 ;    C26 - C30
   511   533   1 ;    C26 - C33
   511   534   1 ;    C26 - C34
   511   540   1 ;    C26 - H56
   512   514   1 ;    C27 - C29
   512   515   1 ;    C27 - H42
   512   517   1 ;    C27 - H44
   512   520   1 ;    C27 - O21
   512   529   1 ;    C27 - H51
   512   530   1 ;    C27 - O25
   513   515   1 ;    C28 - H42
   513   519   1 ;    C28 - H46
   513   523   1 ;    C28 - H48
   513   524   1 ;    C28 - O23
   513   525   1 ;    C28 - C30
   513   530   1 ;    C28 - O25
   514   516   1 ;    C29 - H43
   514   521   1 ;    C29 - H47
   514   531   1 ;    C29 - C31
   515   518   1 ;    H42 - H45
   515   522   1 ;    H42 - O22
   515   531   1 ;    H42 - C31
   516   517   1 ;    H43 - H44
   516   519   1 ;    H43 - H46
   516   520   1 ;    H43 - O21
   516   524   1 ;    H43 - O23
   516   525   1 ;    H43 - C30
   517   518   1 ;    H44 - H45
   517   521   1 ;    H44 - H47
   517   522   1 ;    H44 - O22
   518   520   1 ;    H45 - O21
   518   523   1 ;    H45 - H48
   518   524   1 ;    H45 - O23
   518   530   1 ;    H45 - O25
   519   526   1 ;    H46 - H49
   519   527   1 ;    H46 - H50
   519   528   1 ;    H46 - O24
   520   522   1 ;    O21 - O22
   522   524   1 ;    O22 - O23
   522   530   1 ;    O22 - O25
   524   526   1 ;    O23 - H49
   524   527   1 ;    O23 - H50
   524   528   1 ;    O23 - O24
   524   531   1 ;    O23 - C31
   526   529   1 ;    H49 - H51
   527   529   1 ;    H50 - H51
   530   532   1 ;    O25 - C32
   530   536   1 ;    O25 - H52
   530   538   1 ;    O25 - H54
   530   541   1 ;    O25 - O26
   530   542   1 ;    O25 - C36
   530   549   1 ;    O25 - O29
   531   535   1 ;    C31 - C35
   531   537   1 ;    C31 - H53
   531   543   1 ;    C31 - H57
   531   544   1 ;    C31 - H58
   531   545   1 ;    C31 - O27
   531   547   1 ;    C31 - O28
   531   550   1 ;    C31 - H61
   532   534   1 ;    C32 - C34
   532   540   1 ;    C32 - H56
   532   550   1 ;    C32 - H61
   532   552   1 ;    C32 - C37
   533   538   1 ;    C33 - H54
   533   539   1 ;    C33 - H55
   533   541   1 ;    C33 - O26
   533   542   1 ;    C33 - C36
   533   548   1 ;    C33 - H60
   533   551   1 ;    C33 - O30
   534   536   1 ;    C34 - H52
   534   539   1 ;    C34 - H55
   534   546   1 ;    C34 - H59
   534   549   1 ;    C34 - O29
   534   551   1 ;    C34 - O30
   535   536   1 ;    C35 - H52
   535   538   1 ;    C35 - H54
   535   542   1 ;    C35 - C36
   535   548   1 ;    C35 - H60
   535   549   1 ;    C35 - O29
   535   554   1 ;    C35 - C39
   535   555   1 ;    C35 - C40
   535   558   1 ;    C35 - H63
   536   537   1 ;    H52 - H53
   536   540   1 ;    H52 - H56
   536   547   1 ;    H52 - O28
   536   550   1 ;    H52 - H61
   537   539   1 ;    H53 - H55
   537   541   1 ;    H53 - O26
   537   548   1 ;    H53 - H60
   537   549   1 ;    H53 - O29
   537   551   1 ;    H53 - O30
   538   540   1 ;    H54 - H56
   538   543   1 ;    H54 - H57
   538   544   1 ;    H54 - H58
   538   545   1 ;    H54 - O27
   539   547   1 ;    H55 - O28
   539   552   1 ;    H55 - C37
   540   541   1 ;    H56 - O26
   540   542   1 ;    H56 - C36
   540   549   1 ;    H56 - O29
   541   543   1 ;    O26 - H57
   541   544   1 ;    O26 - H58
   541   545   1 ;    O26 - O27
   541   547   1 ;    O26 - O28
   541   552   1 ;    O26 - C37
   543   546   1 ;    H57 - H59
   544   546   1 ;    H58 - H59
   547   549   1 ;    O28 - O29
   547   551   1 ;    O28 - O30
   551   556   1 ;    O30 - C41
   551   559   1 ;    O30 - H64
   551   561   1 ;    O30 - H66
   551   562   1 ;    O30 - O31
   551   566   1 ;    O30 - O33
   551   567   1 ;    O30 - C42
   552   553   1 ;    C37 - C38
   552   560   1 ;    C37 - H65
   552   563   1 ;    C37 - H67
   552   564   1 ;    C37 - O32
   552   568   1 ;    C37 - H69
   552   569   1 ;    C37 - H70
   552   570   1 ;    C37 - O34
   553   559   1 ;    C38 - H64
   553   561   1 ;    C38 - H66
   553   562   1 ;    C38 - O31
   553   565   1 ;    C38 - H68
   553   567   1 ;    C38 - C42
   553   575   1 ;    C38 - C45
   553   576   1 ;    C38 - C46
   553   582   1 ;    C38 - H76
   554   556   1 ;    C39 - C41
   554   557   1 ;    C39 - H62
   554   559   1 ;    C39 - H64
   554   562   1 ;    C39 - O31
   554   571   1 ;    C39 - H71
   554   572   1 ;    C39 - O35
   555   557   1 ;    C40 - H62
   555   561   1 ;    C40 - H66
   555   565   1 ;    C40 - H68
   555   566   1 ;    C40 - O33
   555   567   1 ;    C40 - C42
   555   572   1 ;    C40 - O35
   556   558   1 ;    C41 - H63
   556   563   1 ;    C41 - H67
   556   573   1 ;    C41 - C43
   557   560   1 ;    H62 - H65
   557   564   1 ;    H62 - O32
   557   573   1 ;    H62 - C43
   558   559   1 ;    H63 - H64
   558   561   1 ;    H63 - H66
   558   562   1 ;    H63 - O31
   558   566   1 ;    H63 - O33
   558   567   1 ;    H63 - C42
   559   560   1 ;    H64 - H65
   559   563   1 ;    H64 - H67
   559   564   1 ;    H64 - O32
   560   562   1 ;    H65 - O31
   560   565   1 ;    H65 - H68
   560   566   1 ;    H65 - O33
   560   572   1 ;    H65 - O35
   561   568   1 ;    H66 - H69
   561   569   1 ;    H66 - H70
   561   570   1 ;    H66 - O34
   562   564   1 ;    O31 - O32
   564   566   1 ;    O32 - O33
   564   572   1 ;    O32 - O35
   566   568   1 ;    O33 - H69
   566   569   1 ;    O33 - H70
   566   570   1 ;    O33 - O34
   566   573   1 ;    O33 - C43
   568   571   1 ;    H69 - H71
   569   571   1 ;    H70 - H71
   572   574   1 ;    O35 - C44
   572   578   1 ;    O35 - H72
   572   580   1 ;    O35 - H74
   572   583   1 ;    O35 - O36
   572   584   1 ;    O35 - C48
   572   591   1 ;    O35 - O39
   573   577   1 ;    C43 - C47
   573   579   1 ;    C43 - H73
   573   585   1 ;    C43 - H77
   573   586   1 ;    C43 - H78
   573   587   1 ;    C43 - O37
   573   589   1 ;    C43 - O38
   573   592   1 ;    C43 - H81
   574   576   1 ;    C44 - C46
   574   582   1 ;    C44 - H76
   574   592   1 ;    C44 - H81
   574   594   1 ;    C44 - C49
   575   580   1 ;    C45 - H74
   575   581   1 ;    C45 - H75
   575   583   1 ;    C45 - O36
   575   584   1 ;    C45 - C48
   575   590   1 ;    C45 - H80
   575   593   1 ;    C45 - O40
   576   578   1 ;    C46 - H72
   576   581   1 ;    C46 - H75
   576   588   1 ;    C46 - H79
   576   591   1 ;    C46 - O39
   576   593   1 ;    C46 - O40
   577   578   1 ;    C47 - H72
   577   580   1 ;    C47 - H74
   577   584   1 ;    C47 - C48
   577   590   1 ;    C47 - H80
   577   591   1 ;    C47 - O39
   577   596   1 ;    C47 - C51
   577   597   1 ;    C47 - C52
   577   600   1 ;    C47 - H83
   578   579   1 ;    H72 - H73
   578   582   1 ;    H72 - H76
   578   589   1 ;    H72 - O38
   578   592   1 ;    H72 - H81
   579   581   1 ;    H73 - H75
   579   583   1 ;    H73 - O36
   579   590   1 ;    H73 - H80
   579   591   1 ;    H73 - O39
   579   593   1 ;    H73 - O40
   580   582   1 ;    H74 - H76
   580   585   1 ;    H74 - H77
   580   586   1 ;    H74 - H78
   580   587   1 ;    H74 - O37
   581   589   1 ;    H75 - O38
   581   594   1 ;    H75 - C49
   582   583   1 ;    H76 - O36
   582   584   1 ;    H76 - C48
   582   591   1 ;    H76 - O39
   583   585   1 ;    O36 - H77
   583   586   1 ;    O36 - H78
   583   587   1 ;    O36 - O37
   583   589   1 ;    O36 - O38
   583   594   1 ;    O36 - C49
   585   588   1 ;    H77 - H79
   586   588   1 ;    H78 - H79
   589   591   1 ;    O38 - O39
   589   593   1 ;    O38 - O40
   593   598   1 ;    O40 - C53
   593   601   1 ;    O40 - H84
   593   603   1 ;    O40 - H86
   593   604   1 ;    O40 - O41
   593   608   1 ;    O40 - O43
   593   609   1 ;    O40 - C54
   594   595   1 ;    C49 - C50
   594   602   1 ;    C49 - H85
   594   605   1 ;    C49 - H87
   594   606   1 ;    C49 - O42
   594   610   1 ;    C49 - H89
   594   611   1 ;    C49 - H90
   594   612   1 ;    C49 - O44
   595   601   1 ;    C50 - H84
   595   603   1 ;    C50 - H86
   595   604   1 ;    C50 - O41
   595   607   1 ;    C50 - H88
   595   609   1 ;    C50 - C54
   595   617   1 ;    C50 - C57
   595   618   1 ;    C50 - C58
   595   624   1 ;    C50 - H96
   596   598   1 ;    C51 - C53
   596   599   1 ;    C51 - H82
   596   601   1 ;    C51 - H84
   596   604   1 ;    C51 - O41
   596   613   1 ;    C51 - H91
   596   614   1 ;    C51 - O45
   597   599   1 ;    C52 - H82
   597   603   1 ;    C52 - H86
   597   607   1 ;    C52 - H88
   597   608   1 ;    C52 - O43
   597   609   1 ;    C52 - C54
   597   614   1 ;    C52 - O45
   598   600   1 ;    C53 - H83
   598   605   1 ;    C53 - H87
   598   615   1 ;    C53 - C55
   599   602   1 ;    H82 - H85
   599   606   1 ;    H82 - O42
   599   615   1 ;    H82 - C55
   600   601   1 ;    H83 - H84
   600   603   1 ;    H83 - H86
   600   604   1 ;    H83 - O41
   600   608   1 ;    H83 - O43
   600   609   1 ;    H83 - C54
   601   602   1 ;    H84 - H85
   601   605   1 ;    H84 - H87
   601   606   1 ;    H84 - O42
   602   604   1 ;    H85 - O41
   602   607   1 ;    H85 - H88
   602   608   1 ;    H85 - O43
   602   614   1 ;    H85 - O45
   603   610   1 ;    H86 - H89
   603   611   1 ;    H86 - H90
   603   612   1 ;    H86 - O44
   604   606   1 ;    O41 - O42
   606   608   1 ;    O42 - O43
   606   614   1 ;    O42 - O45
   608   610   1 ;    O43 - H89
   608   611   1 ;    O43 - H90
   608   612   1 ;    O43 - O44
   608   615   1 ;    O43 - C55
   610   613   1 ;    H89 - H91
   611   613   1 ;    H90 - H91
   614   616   1 ;    O45 - C56
   614   620   1 ;    O45 - H92
   614   622   1 ;    O45 - H94
   614   625   1 ;    O45 - O46
   614   626   1 ;    O45 - C60
   614   633   1 ;    O45 - O49
   615   619   1 ;    C55 - C59
   615   621   1 ;    C55 - H93
   615   627   1 ;    C55 - H97
   615   628   1 ;    C55 - H98
   615   629   1 ;    C55 - O47
   615   631   1 ;    C55 - O48
   615   634   1 ;    C55 - H101
   616   618   1 ;    C56 - C58
   616   624   1 ;    C56 - H96
   616   634   1 ;    C56 - H101
   616   636   1 ;    C56 - H102
   617   622   1 ;    C57 - H94
   617   623   1 ;    C57 - H95
   617   625   1 ;    C57 - O46
   617   626   1 ;    C57 - C60
   617   632   1 ;    C57 - H100
   617   635   1 ;    C57 - O50
   618   620   1 ;    C58 - H92
   618   623   1 ;    C58 - H95
   618   630   1 ;    C58 - H99
   618   633   1 ;    C58 - O49
   618   635   1 ;    C58 - O50
   619   620   1 ;    C59 - H92
   619   622   1 ;    C59 - H94
   619   626   1 ;    C59 - C60
   619   632   1 ;    C59 - H100
   619   633   1 ;    C59 - O49
   620   621   1 ;    H92 - H93
   620   624   1 ;    H92 - H96
   620   631   1 ;    H92 - O48
   620   634   1 ;    H92 - H101
   621   623   1 ;    H93 - H95
   621   625   1 ;    H93 - O46
   621   632   1 ;    H93 - H100
   621   633   1 ;    H93 - O49
   621   635   1 ;    H93 - O50
   622   624   1 ;    H94 - H96
   622   627   1 ;    H94 - H97
   622   628   1 ;    H94 - H98
   622   629   1 ;    H94 - O47
   623   631   1 ;    H95 - O48
   623   636   1 ;    H95 - H102
   624   625   1 ;    H96 - O46
   624   626   1 ;    H96 - C60
   624   633   1 ;    H96 - O49
   625   627   1 ;    O46 - H97
   625   628   1 ;    O46 - H98
   625   629   1 ;    O46 - O47
   625   631   1 ;    O46 - O48
   625   636   1 ;    O46 - H102
   627   630   1 ;    H97 - H99
   628   630   1 ;    H98 - H99
   631   633   1 ;    O48 - O49
   631   635   1 ;    O48 - O50
   637   642   1 ;     H1 - C5
   637   645   1 ;     H1 - H4
   637   647   1 ;     H1 - H6
   637   648   1 ;     H1 - O1
   637   652   1 ;     H1 - O3
   637   653   1 ;     H1 - C6
   638   639   1 ;     C1 - C2
   638   646   1 ;     C1 - H5
   638   649   1 ;     C1 - H7
   638   650   1 ;     C1 - O2
   638   654   1 ;     C1 - H9
   638   655   1 ;     C1 - H10
   638   656   1 ;     C1 - O4
   639   645   1 ;     C2 - H4
   639   647   1 ;     C2 - H6
   639   648   1 ;     C2 - O1
   639   651   1 ;     C2 - H8
   639   653   1 ;     C2 - C6
   639   661   1 ;     C2 - C9
   639   662   1 ;     C2 - C10
   639   668   1 ;     C2 - H16
   640   642   1 ;     C3 - C5
   640   643   1 ;     C3 - H2
   640   645   1 ;     C3 - H4
   640   648   1 ;     C3 - O1
   640   657   1 ;     C3 - H11
   640   658   1 ;     C3 - O5
   641   643   1 ;     C4 - H2
   641   647   1 ;     C4 - H6
   641   651   1 ;     C4 - H8
   641   652   1 ;     C4 - O3
   641   653   1 ;     C4 - C6
   641   658   1 ;     C4 - O5
   642   644   1 ;     C5 - H3
   642   649   1 ;     C5 - H7
   642   659   1 ;     C5 - C7
   643   646   1 ;     H2 - H5
   643   650   1 ;     H2 - O2
   643   659   1 ;     H2 - C7
   644   645   1 ;     H3 - H4
   644   647   1 ;     H3 - H6
   644   648   1 ;     H3 - O1
   644   652   1 ;     H3 - O3
   644   653   1 ;     H3 - C6
   645   646   1 ;     H4 - H5
   645   649   1 ;     H4 - H7
   645   650   1 ;     H4 - O2
   646   648   1 ;     H5 - O1
   646   651   1 ;     H5 - H8
   646   652   1 ;     H5 - O3
   646   658   1 ;     H5 - O5
   647   654   1 ;     H6 - H9
   647   655   1 ;     H6 - H10
   647   656   1 ;     H6 - O4
   648   650   1 ;     O1 - O2
   650   652   1 ;     O2 - O3
   650   658   1 ;     O2 - O5
   652   654   1 ;     O3 - H9
   652   655   1 ;     O3 - H10
   652   656   1 ;     O3 - O4
   652   659   1 ;     O3 - C7
   654   657   1 ;     H9 - H11
   655   657   1 ;    H10 - H11
   658   660   1 ;     O5 - C8
   658   664   1 ;     O5 - H12
   658   666   1 ;     O5 - H14
   658   669   1 ;     O5 - O6
   658   670   1 ;     O5 - C12
   658   677   1 ;     O5 - O9
   659   663   1 ;     C7 - C11
   659   665   1 ;     C7 - H13
   659   671   1 ;     C7 - H17
   659   672   1 ;     C7 - H18
   659   673   1 ;     C7 - O7
   659   675   1 ;     C7 - O8
   659   678   1 ;     C7 - H21
   660   662   1 ;     C8 - C10
   660   668   1 ;     C8 - H16
   660   678   1 ;     C8 - H21
   660   680   1 ;     C8 - C13
   661   666   1 ;     C9 - H14
   661   667   1 ;     C9 - H15
   661   669   1 ;     C9 - O6
   661   670   1 ;     C9 - C12
   661   676   1 ;     C9 - H20
   661   679   1 ;     C9 - O10
   662   664   1 ;    C10 - H12
   662   667   1 ;    C10 - H15
   662   674   1 ;    C10 - H19
   662   677   1 ;    C10 - O9
   662   679   1 ;    C10 - O10
   663   664   1 ;    C11 - H12
   663   666   1 ;    C11 - H14
   663   670   1 ;    C11 - C12
   663   676   1 ;    C11 - H20
   663   677   1 ;    C11 - O9
   663   682   1 ;    C11 - C15
   663   683   1 ;    C11 - C16
   663   686   1 ;    C11 - H23
   664   665   1 ;    H12 - H13
   664   668   1 ;    H12 - H16
   664   675   1 ;    H12 - O8
   664   678   1 ;    H12 - H21
   665   667   1 ;    H13 - H15
   665   669   1 ;    H13 - O6
   665   676   1 ;    H13 - H20
   665   677   1 ;    H13 - O9
   665   679   1 ;    H13 - O10
   666   668   1 ;    H14 - H16
   666   671   1 ;    H14 - H17
   666   672   1 ;    H14 - H18
   666   673   1 ;    H14 - O7
   667   675   1 ;    H15 - O8
   667   680   1 ;    H15 - C13
   668   669   1 ;    H16 - O6
   668   670   1 ;    H16 - C12
   668   677   1 ;    H16 - O9
   669   671   1 ;     O6 - H17
   669   672   1 ;     O6 - H18
   669   673   1 ;     O6 - O7
   669   675   1 ;     O6 - O8
   669   680   1 ;     O6 - C13
   671   674   1 ;    H17 - H19
   672   674   1 ;    H18 - H19
   675   677   1 ;     O8 - O9
   675   679   1 ;     O8 - O10
   679   684   1 ;    O10 - C17
   679   687   1 ;    O10 - H24
   679   689   1 ;    O10 - H26
   679   690   1 ;    O10 - O11
   679   694   1 ;    O10 - O13
   679   695   1 ;    O10 - C18
   680   681   1 ;    C13 - C14
   680   688   1 ;    C13 - H25
   680   691   1 ;    C13 - H27
   680   692   1 ;    C13 - O12
   680   696   1 ;    C13 - H29
   680   697   1 ;    C13 - H30
   680   698   1 ;    C13 - O14
   681   687   1 ;    C14 - H24
   681   689   1 ;    C14 - H26
   681   690   1 ;    C14 - O11
   681   693   1 ;    C14 - H28
   681   695   1 ;    C14 - C18
   681   703   1 ;    C14 - C21
   681   704   1 ;    C14 - C22
   681   710   1 ;    C14 - H36
   682   684   1 ;    C15 - C17
   682   685   1 ;    C15 - H22
   682   687   1 ;    C15 - H24
   682   690   1 ;    C15 - O11
   682   699   1 ;    C15 - H31
   682   700   1 ;    C15 - O15
   683   685   1 ;    C16 - H22
   683   689   1 ;    C16 - H26
   683   693   1 ;    C16 - H28
   683   694   1 ;    C16 - O13
   683   695   1 ;    C16 - C18
   683   700   1 ;    C16 - O15
   684   686   1 ;    C17 - H23
   684   691   1 ;    C17 - H27
   684   701   1 ;    C17 - C19
   685   688   1 ;    H22 - H25
   685   692   1 ;    H22 - O12
   685   701   1 ;    H22 - C19
   686   687   1 ;    H23 - H24
   686   689   1 ;    H23 - H26
   686   690   1 ;    H23 - O11
   686   694   1 ;    H23 - O13
   686   695   1 ;    H23 - C18
   687   688   1 ;    H24 - H25
   687   691   1 ;    H24 - H27
   687   692   1 ;    H24 - O12
   688   690   1 ;    H25 - O11
   688   693   1 ;    H25 - H28
   688   694   1 ;    H25 - O13
   688   700   1 ;    H25 - O15
   689   696   1 ;    H26 - H29
   689   697   1 ;    H26 - H30
   689   698   1 ;    H26 - O14
   690   692   1 ;    O11 - O12
   692   694   1 ;    O12 - O13
   692   700   1 ;    O12 - O15
   694   696   1 ;    O13 - H29
   694   697   1 ;    O13 - H30
   694   698   1 ;    O13 - O14
   694   701   1 ;    O13 - C19
   696   699   1 ;    H29 - H31
   697   699   1 ;    H30 - H31
   700   702   1 ;    O15 - C20
   700   706   1 ;    O15 - H32
   700   708   1 ;    O15 - H34
   700   711   1 ;    O15 - O16
   700   712   1 ;    O15 - C24
   700   719   1 ;    O15 - O19
   701   705   1 ;    C19 - C23
   701   707   1 ;    C19 - H33
   701   713   1 ;    C19 - H37
   701   714   1 ;    C19 - H38
   701   715   1 ;    C19 - O17
   701   717   1 ;    C19 - O18
   701   720   1 ;    C19 - H41
   702   704   1 ;    C20 - C22
   702   710   1 ;    C20 - H36
   702   720   1 ;    C20 - H41
   702   722   1 ;    C20 - C25
   703   708   1 ;    C21 - H34
   703   709   1 ;    C21 - H35
   703   711   1 ;    C21 - O16
   703   712   1 ;    C21 - C24
   703   718   1 ;    C21 - H40
   703   721   1 ;    C21 - O20
   704   706   1 ;    C22 - H32
   704   709   1 ;    C22 - H35
   704   716   1 ;    C22 - H39
   704   719   1 ;    C22 - O19
   704   721   1 ;    C22 - O20
   705   706   1 ;    C23 - H32
   705   708   1 ;    C23 - H34
   705   712   1 ;    C23 - C24
   705   718   1 ;    C23 - H40
   705   719   1 ;    C23 - O19
   705   724   1 ;    C23 - C27
   705   725   1 ;    C23 - C28
   705   728   1 ;    C23 - H43
   706   707   1 ;    H32 - H33
   706   710   1 ;    H32 - H36
   706   717   1 ;    H32 - O18
   706   720   1 ;    H32 - H41
   707   709   1 ;    H33 - H35
   707   711   1 ;    H33 - O16
   707   718   1 ;    H33 - H40
   707   719   1 ;    H33 - O19
   707   721   1 ;    H33 - O20
   708   710   1 ;    H34 - H36
   708   713   1 ;    H34 - H37
   708   714   1 ;    H34 - H38
   708   715   1 ;    H34 - O17
   709   717   1 ;    H35 - O18
   709   722   1 ;    H35 - C25
   710   711   1 ;    H36 - O16
   710   712   1 ;    H36 - C24
   710   719   1 ;    H36 - O19
   711   713   1 ;    O16 - H37
   711   714   1 ;    O16 - H38
   711   715   1 ;    O16 - O17
   711   717   1 ;    O16 - O18
   711   722   1 ;    O16 - C25
   713   716   1 ;    H37 - H39
   714   716   1 ;    H38 - H39
   717   719   1 ;    O18 - O19
   717   721   1 ;    O18 - O20
   721   726   1 ;    O20 - C29
   721   729   1 ;    O20 - H44
   721   731   1 ;    O20 - H46
   721   732   1 ;    O20 - O21
   721   736   1 ;    O20 - O23
   721   737   1 ;    O20 - C30
   722   723   1 ;    C25 - C26
   722   730   1 ;    C25 - H45
   722   733   1 ;    C25 - H47
   722   734   1 ;    C25 - O22
   722   738   1 ;    C25 - H49
   722   739   1 ;    C25 - H50
   722   740   1 ;    C25 - O24
   723   729   1 ;    C26 - H44
   723   731   1 ;    C26 - H46
   723   732   1 ;    C26 - O21
   723   735   1 ;    C26 - H48
   723   737   1 ;    C26 - C30
   723   745   1 ;    C26 - C33
   723   746   1 ;    C26 - C34
   723   752   1 ;    C26 - H56
   724   726   1 ;    C27 - C29
   724   727   1 ;    C27 - H42
   724   729   1 ;    C27 - H44
   724   732   1 ;    C27 - O21
   724   741   1 ;    C27 - H51
   724   742   1 ;    C27 - O25
   725   727   1 ;    C28 - H42
   725   731   1 ;    C28 - H46
   725   735   1 ;    C28 - H48
   725   736   1 ;    C28 - O23
   725   737   1 ;    C28 - C30
   725   742   1 ;    C28 - O25
   726   728   1 ;    C29 - H43
   726   733   1 ;    C29 - H47
   726   743   1 ;    C29 - C31
   727   730   1 ;    H42 - H45
   727   734   1 ;    H42 - O22
   727   743   1 ;    H42 - C31
   728   729   1 ;    H43 - H44
   728   731   1 ;    H43 - H46
   728   732   1 ;    H43 - O21
   728   736   1 ;    H43 - O23
   728   737   1 ;    H43 - C30
   729   730   1 ;    H44 - H45
   729   733   1 ;    H44 - H47
   729   734   1 ;    H44 - O22
   730   732   1 ;    H45 - O21
   730   735   1 ;    H45 - H48
   730   736   1 ;    H45 - O23
   730   742   1 ;    H45 - O25
   731   738   1 ;    H46 - H49
   731   739   1 ;    H46 - H50
   731   740   1 ;    H46 - O24
   732   734   1 ;    O21 - O22
   734   736   1 ;    O22 - O23
   734   742   1 ;    O22 - O25
   736   738   1 ;    O23 - H49
   736   739   1 ;    O23 - H50
   736   740   1 ;    O23 - O24
   736   743   1 ;    O23 - C31
   738   741   1 ;    H49 - H51
   739   741   1 ;    H50 - H51
   742   744   1 ;    O25 - C32
   742   748   1 ;    O25 - H52
   742   750   1 ;    O25 - H54
   742   753   1 ;    O25 - O26
   742   754   1 ;    O25 - C36
   742   761   1 ;    O25 - O29
   743   747   1 ;    C31 - C35
   743   749   1 ;    C31 - H53
   743   755   1 ;    C31 - H57
   743   756   1 ;    C31 - H58
   743   757   1 ;    C31 - O27
   743   759   1 ;    C31 - O28
   743   762   1 ;    C31 - H61
   744   746   1 ;    C32 - C34
   744   752   1 ;    C32 - H56
   744   762   1 ;    C32 - H61
   744   764   1 ;    C32 - C37
   745   750   1 ;    C33 - H54
   745   751   1 ;    C33 - H55
   745   753   1 ;    C33 - O26
   745   754   1 ;    C33 - C36
   745   760   1 ;    C33 - H60
   745   763   1 ;    C33 - O30
   746   748   1 ;    C34 - H52
   746   751   1 ;    C34 - H55
   746   758   1 ;    C34 - H59
   746   761   1 ;    C34 - O29
   746   763   1 ;    C34 - O30
   747   748   1 ;    C35 - H52
   747   750   1 ;    C35 - H54
   747   754   1 ;    C35 - C36
   747   760   1 ;    C35 - H60
   747   761   1 ;    C35 - O29
   747   766   1 ;    C35 - C39
   747   767   1 ;    C35 - C40
   747   770   1 ;    C35 - H63
   748   749   1 ;    H52 - H53
   748   752   1 ;    H52 - H56
   748   759   1 ;    H52 - O28
   748   762   1 ;    H52 - H61
   749   751   1 ;    H53 - H55
   749   753   1 ;    H53 - O26
   749   760   1 ;    H53 - H60
   749   761   1 ;    H53 - O29
   749   763   1 ;    H53 - O30
   750   752   1 ;    H54 - H56
   750   755   1 ;    H54 - H57
   750   756   1 ;    H54 - H58
   750   757   1 ;    H54 - O27
   751   759   1 ;    H55 - O28
   751   764   1 ;    H55 - C37
   752   753   1 ;    H56 - O26
   752   754   1 ;    H56 - C36
   752   761   1 ;    H56 - O29
   753   755   1 ;    O26 - H57
   753   756   1 ;    O26 - H58
   753   757   1 ;    O26 - O27
   753   759   1 ;    O26 - O28
   753   764   1 ;    O26 - C37
   755   758   1 ;    H57 - H59
   756   758   1 ;    H58 - H59
   759   761   1 ;    O28 - O29
   759   763   1 ;    O28 - O30
   763   768   1 ;    O30 - C41
   763   771   1 ;    O30 - H64
   763   773   1 ;    O30 - H66
   763   774   1 ;    O30 - O31
   763   778   1 ;    O30 - O33
   763   779   1 ;    O30 - C42
   764   765   1 ;    C37 - C38
   764   772   1 ;    C37 - H65
   764   775   1 ;    C37 - H67
   764   776   1 ;    C37 - O32
   764   780   1 ;    C37 - H69
   764   781   1 ;    C37 - H70
   764   782   1 ;    C37 - O34
   765   771   1 ;    C38 - H64
   765   773   1 ;    C38 - H66
   765   774   1 ;    C38 - O31
   765   777   1 ;    C38 - H68
   765   779   1 ;    C38 - C42
   765   787   1 ;    C38 - C45
   765   788   1 ;    C38 - C46
   765   794   1 ;    C38 - H76
   766   768   1 ;    C39 - C41
   766   769   1 ;    C39 - H62
   766   771   1 ;    C39 - H64
   766   774   1 ;    C39 - O31
   766   783   1 ;    C39 - H71
   766   784   1 ;    C39 - O35
   767   769   1 ;    C40 - H62
   767   773   1 ;    C40 - H66
   767   777   1 ;    C40 - H68
   767   778   1 ;    C40 - O33
   767   779   1 ;    C40 - C42
   767   784   1 ;    C40 - O35
   768   770   1 ;    C41 - H63
   768   775   1 ;    C41 - H67
   768   785   1 ;    C41 - C43
   769   772   1 ;    H62 - H65
   769   776   1 ;    H62 - O32
   769   785   1 ;    H62 - C43
   770   771   1 ;    H63 - H64
   770   773   1 ;    H63 - H66
   770   774   1 ;    H63 - O31
   770   778   1 ;    H63 - O33
   770   779   1 ;    H63 - C42
   771   772   1 ;    H64 - H65
   771   775   1 ;    H64 - H67
   771   776   1 ;    H64 - O32
   772   774   1 ;    H65 - O31
   772   777   1 ;    H65 - H68
   772   778   1 ;    H65 - O33
   772   784   1 ;    H65 - O35
   773   780   1 ;    H66 - H69
   773   781   1 ;    H66 - H70
   773   782   1 ;    H66 - O34
   774   776   1 ;    O31 - O32
   776   778   1 ;    O32 - O33
   776   784   1 ;    O32 - O35
   778   780   1 ;    O33 - H69
   778   781   1 ;    O33 - H70
   778   782   1 ;    O33 - O34
   778   785   1 ;    O33 - C43
   780   783   1 ;    H69 - H71
   781   783   1 ;    H70 - H71
   784   786   1 ;    O35 - C44
   784   790   1 ;    O35 - H72
   784   792   1 ;    O35 - H74
   784   795   1 ;    O35 - O36
   784   796   1 ;    O35 - C48
   784   803   1 ;    O35 - O39
   785   789   1 ;    C43 - C47
   785   791   1 ;    C43 - H73
   785   797   1 ;    C43 - H77
   785   798   1 ;    C43 - H78
   785   799   1 ;    C43 - O37
   785   801   1 ;    C43 - O38
   785   804   1 ;    C43 - H81
   786   788   1 ;    C44 - C46
   786   794   1 ;    C44 - H76
   786   804   1 ;    C44 - H81
   786   806   1 ;    C44 - C49
   787   792   1 ;    C45 - H74
   787   793   1 ;    C45 - H75
   787   795   1 ;    C45 - O36
   787   796   1 ;    C45 - C48
   787   802   1 ;    C45 - H80
   787   805   1 ;    C45 - O40
   788   790   1 ;    C46 - H72
   788   793   1 ;    C46 - H75
   788   800   1 ;    C46 - H79
   788   803   1 ;    C46 - O39
   788   805   1 ;    C46 - O40
   789   790   1 ;    C47 - H72
   789   792   1 ;    C47 - H74
   789   796   1 ;    C47 - C48
   789   802   1 ;    C47 - H80
   789   803   1 ;    C47 - O39
   789   808   1 ;    C47 - C51
   789   809   1 ;    C47 - C52
   789   812   1 ;    C47 - H83
   790   791   1 ;    H72 - H73
   790   794   1 ;    H72 - H76
   790   801   1 ;    H72 - O38
   790   804   1 ;    H72 - H81
   791   793   1 ;    H73 - H75
   791   795   1 ;    H73 - O36
   791   802   1 ;    H73 - H80
   791   803   1 ;    H73 - O39
   791   805   1 ;    H73 - O40
   792   794   1 ;    H74 - H76
   792   797   1 ;    H74 - H77
   792   798   1 ;    H74 - H78
   792   799   1 ;    H74 - O37
   793   801   1 ;    H75 - O38
   793   806   1 ;    H75 - C49
   794   795   1 ;    H76 - O36
   794   796   1 ;    H76 - C48
   794   803   1 ;    H76 - O39
   795   797   1 ;    O36 - H77
   795   798   1 ;    O36 - H78
   795   799   1 ;    O36 - O37
   795   801   1 ;    O36 - O38
   795   806   1 ;    O36 - C49
   797   800   1 ;    H77 - H79
   798   800   1 ;    H78 - H79
   801   803   1 ;    O38 - O39
   801   805   1 ;    O38 - O40
   805   810   1 ;    O40 - C53
   805   813   1 ;    O40 - H84
   805   815   1 ;    O40 - H86
   805   816   1 ;    O40 - O41
   805   820   1 ;    O40 - O43
   805   821   1 ;    O40 - C54
   806   807   1 ;    C49 - C50
   806   814   1 ;    C49 - H85
   806   817   1 ;    C49 - H87
   806   818   1 ;    C49 - O42
   806   822   1 ;    C49 - H89
   806   823   1 ;    C49 - H90
   806   824   1 ;    C49 - O44
   807   813   1 ;    C50 - H84
   807   815   1 ;    C50 - H86
   807   816   1 ;    C50 - O41
   807   819   1 ;    C50 - H88
   807   821   1 ;    C50 - C54
   807   829   1 ;    C50 - C57
   807   830   1 ;    C50 - C58
   807   836   1 ;    C50 - H96
   808   810   1 ;    C51 - C53
   808   811   1 ;    C51 - H82
   808   813   1 ;    C51 - H84
   808   816   1 ;    C51 - O41
   808   825   1 ;    C51 - H91
   808   826   1 ;    C51 - O45
   809   811   1 ;    C52 - H82
   809   815   1 ;    C52 - H86
   809   819   1 ;    C52 - H88
   809   820   1 ;    C52 - O43
   809   821   1 ;    C52 - C54
   809   826   1 ;    C52 - O45
   810   812   1 ;    C53 - H83
   810   817   1 ;    C53 - H87
   810   827   1 ;    C53 - C55
   811   814   1 ;    H82 - H85
   811   818   1 ;    H82 - O42
   811   827   1 ;    H82 - C55
   812   813   1 ;    H83 - H84
   812   815   1 ;    H83 - H86
   812   816   1 ;    H83 - O41
   812   820   1 ;    H83 - O43
   812   821   1 ;    H83 - C54
   813   814   1 ;    H84 - H85
   813   817   1 ;    H84 - H87
   813   818   1 ;    H84 - O42
   814   816   1 ;    H85 - O41
   814   819   1 ;    H85 - H88
   814   820   1 ;    H85 - O43
   814   826   1 ;    H85 - O45
   815   822   1 ;    H86 - H89
   815   823   1 ;    H86 - H90
   815   824   1 ;    H86 - O44
   816   818   1 ;    O41 - O42
   818   820   1 ;    O42 - O43
   818   826   1 ;    O42 - O45
   820   822   1 ;    O43 - H89
   820   823   1 ;    O43 - H90
   820   824   1 ;    O43 - O44
   820   827   1 ;    O43 - C55
   822   825   1 ;    H89 - H91
   823   825   1 ;    H90 - H91
   826   828   1 ;    O45 - C56
   826   832   1 ;    O45 - H92
   826   834   1 ;    O45 - H94
   826   837   1 ;    O45 - O46
   826   838   1 ;    O45 - C60
   826   845   1 ;    O45 - O49
   827   831   1 ;    C55 - C59
   827   833   1 ;    C55 - H93
   827   839   1 ;    C55 - H97
   827   840   1 ;    C55 - H98
   827   841   1 ;    C55 - O47
   827   843   1 ;    C55 - O48
   827   846   1 ;    C55 - H101
   828   830   1 ;    C56 - C58
   828   836   1 ;    C56 - H96
   828   846   1 ;    C56 - H101
   828   848   1 ;    C56 - H102
   829   834   1 ;    C57 - H94
   829   835   1 ;    C57 - H95
   829   837   1 ;    C57 - O46
   829   838   1 ;    C57 - C60
   829   844   1 ;    C57 - H100
   829   847   1 ;    C57 - O50
   830   832   1 ;    C58 - H92
   830   835   1 ;    C58 - H95
   830   842   1 ;    C58 - H99
   830   845   1 ;    C58 - O49
   830   847   1 ;    C58 - O50
   831   832   1 ;    C59 - H92
   831   834   1 ;    C59 - H94
   831   838   1 ;    C59 - C60
   831   844   1 ;    C59 - H100
   831   845   1 ;    C59 - O49
   832   833   1 ;    H92 - H93
   832   836   1 ;    H92 - H96
   832   843   1 ;    H92 - O48
   832   846   1 ;    H92 - H101
   833   835   1 ;    H93 - H95
   833   837   1 ;    H93 - O46
   833   844   1 ;    H93 - H100
   833   845   1 ;    H93 - O49
   833   847   1 ;    H93 - O50
   834   836   1 ;    H94 - H96
   834   839   1 ;    H94 - H97
   834   840   1 ;    H94 - H98
   834   841   1 ;    H94 - O47
   835   843   1 ;    H95 - O48
   835   848   1 ;    H95 - H102
   836   837   1 ;    H96 - O46
   836   838   1 ;    H96 - C60
   836   845   1 ;    H96 - O49
   837   839   1 ;    O46 - H97
   837   840   1 ;    O46 - H98
   837   841   1 ;    O46 - O47
   837   843   1 ;    O46 - O48
   837   848   1 ;    O46 - H102
   839   842   1 ;    H97 - H99
   840   842   1 ;    H98 - H99
   843   845   1 ;    O48 - O49
   843   847   1 ;    O48 - O50
   849   854   1 ;     H1 - C5
   849   857   1 ;     H1 - H4
   849   859   1 ;     H1 - H6
   849   860   1 ;     H1 - O1
   849   864   1 ;     H1 - O3
   849   865   1 ;     H1 - C6
   850   851   1 ;     C1 - C2
   850   858   1 ;     C1 - H5
   850   861   1 ;     C1 - H7
   850   862   1 ;     C1 - O2
   850   866   1 ;     C1 - H9
   850   867   1 ;     C1 - H10
   850   868   1 ;     C1 - O4
   851   857   1 ;     C2 - H4
   851   859   1 ;     C2 - H6
   851   860   1 ;     C2 - O1
   851   863   1 ;     C2 - H8
   851   865   1 ;     C2 - C6
   851   873   1 ;     C2 - C9
   851   874   1 ;     C2 - C10
   851   880   1 ;     C2 - H16
   852   854   1 ;     C3 - C5
   852   855   1 ;     C3 - H2
   852   857   1 ;     C3 - H4
   852   860   1 ;     C3 - O1
   852   869   1 ;     C3 - H11
   852   870   1 ;     C3 - O5
   853   855   1 ;     C4 - H2
   853   859   1 ;     C4 - H6
   853   863   1 ;     C4 - H8
   853   864   1 ;     C4 - O3
   853   865   1 ;     C4 - C6
   853   870   1 ;     C4 - O5
   854   856   1 ;     C5 - H3
   854   861   1 ;     C5 - H7
   854   871   1 ;     C5 - C7
   855   858   1 ;     H2 - H5
   855   862   1 ;     H2 - O2
   855   871   1 ;     H2 - C7
   856   857   1 ;     H3 - H4
   856   859   1 ;     H3 - H6
   856   860   1 ;     H3 - O1
   856   864   1 ;     H3 - O3
   856   865   1 ;     H3 - C6
   857   858   1 ;     H4 - H5
   857   861   1 ;     H4 - H7
   857   862   1 ;     H4 - O2
   858   860   1 ;     H5 - O1
   858   863   1 ;     H5 - H8
   858   864   1 ;     H5 - O3
   858   870   1 ;     H5 - O5
   859   866   1 ;     H6 - H9
   859   867   1 ;     H6 - H10
   859   868   1 ;     H6 - O4
   860   862   1 ;     O1 - O2
   862   864   1 ;     O2 - O3
   862   870   1 ;     O2 - O5
   864   866   1 ;     O3 - H9
   864   867   1 ;     O3 - H10
   864   868   1 ;     O3 - O4
   864   871   1 ;     O3 - C7
   866   869   1 ;     H9 - H11
   867   869   1 ;    H10 - H11
   870   872   1 ;     O5 - C8
   870   876   1 ;     O5 - H12
   870   878   1 ;     O5 - H14
   870   881   1 ;     O5 - O6
   870   882   1 ;     O5 - C12
   870   889   1 ;     O5 - O9
   871   875   1 ;     C7 - C11
   871   877   1 ;     C7 - H13
   871   883   1 ;     C7 - H17
   871   884   1 ;     C7 - H18
   871   885   1 ;     C7 - O7
   871   887   1 ;     C7 - O8
   871   890   1 ;     C7 - H21
   872   874   1 ;     C8 - C10
   872   880   1 ;     C8 - H16
   872   890   1 ;     C8 - H21
   872   892   1 ;     C8 - C13
   873   878   1 ;     C9 - H14
   873   879   1 ;     C9 - H15
   873   881   1 ;     C9 - O6
   873   882   1 ;     C9 - C12
   873   888   1 ;     C9 - H20
   873   891   1 ;     C9 - O10
   874   876   1 ;    C10 - H12
   874   879   1 ;    C10 - H15
   874   886   1 ;    C10 - H19
   874   889   1 ;    C10 - O9
   874   891   1 ;    C10 - O10
   875   876   1 ;    C11 - H12
   875   878   1 ;    C11 - H14
   875   882   1 ;    C11 - C12
   875   888   1 ;    C11 - H20
   875   889   1 ;    C11 - O9
   875   894   1 ;    C11 - C15
   875   895   1 ;    C11 - C16
   875   898   1 ;    C11 - H23
   876   877   1 ;    H12 - H13
   876   880   1 ;    H12 - H16
   876   887   1 ;    H12 - O8
   876   890   1 ;    H12 - H21
   877   879   1 ;    H13 - H15
   877   881   1 ;    H13 - O6
   877   888   1 ;    H13 - H20
   877   889   1 ;    H13 - O9
   877   891   1 ;    H13 - O10
   878   880   1 ;    H14 - H16
   878   883   1 ;    H14 - H17
   878   884   1 ;    H14 - H18
   878   885   1 ;    H14 - O7
   879   887   1 ;    H15 - O8
   879   892   1 ;    H15 - C13
   880   881   1 ;    H16 - O6
   880   882   1 ;    H16 - C12
   880   889   1 ;    H16 - O9
   881   883   1 ;     O6 - H17
   881   884   1 ;     O6 - H18
   881   885   1 ;     O6 - O7
   881   887   1 ;     O6 - O8
   881   892   1 ;     O6 - C13
   883   886   1 ;    H17 - H19
   884   886   1 ;    H18 - H19
   887   889   1 ;     O8 - O9
   887   891   1 ;     O8 - O10
   891   896   1 ;    O10 - C17
   891   899   1 ;    O10 - H24
   891   901   1 ;    O10 - H26
   891   902   1 ;    O10 - O11
   891   906   1 ;    O10 - O13
   891   907   1 ;    O10 - C18
   892   893   1 ;    C13 - C14
   892   900   1 ;    C13 - H25
   892   903   1 ;    C13 - H27
   892   904   1 ;    C13 - O12
   892   908   1 ;    C13 - H29
   892   909   1 ;    C13 - H30
   892   910   1 ;    C13 - O14
   893   899   1 ;    C14 - H24
   893   901   1 ;    C14 - H26
   893   902   1 ;    C14 - O11
   893   905   1 ;    C14 - H28
   893   907   1 ;    C14 - C18
   893   915   1 ;    C14 - C21
   893   916   1 ;    C14 - C22
   893   922   1 ;    C14 - H36
   894   896   1 ;    C15 - C17
   894   897   1 ;    C15 - H22
   894   899   1 ;    C15 - H24
   894   902   1 ;    C15 - O11
   894   911   1 ;    C15 - H31
   894   912   1 ;    C15 - O15
   895   897   1 ;    C16 - H22
   895   901   1 ;    C16 - H26
   895   905   1 ;    C16 - H28
   895   906   1 ;    C16 - O13
   895   907   1 ;    C16 - C18
   895   912   1 ;    C16 - O15
   896   898   1 ;    C17 - H23
   896   903   1 ;    C17 - H27
   896   913   1 ;    C17 - C19
   897   900   1 ;    H22 - H25
   897   904   1 ;    H22 - O12
   897   913   1 ;    H22 - C19
   898   899   1 ;    H23 - H24
   898   901   1 ;    H23 - H26
   898   902   1 ;    H23 - O11
   898   906   1 ;    H23 - O13
   898   907   1 ;    H23 - C18
   899   900   1 ;    H24 - H25
   899   903   1 ;    H24 - H27
   899   904   1 ;    H24 - O12
   900   902   1 ;    H25 - O11
   900   905   1 ;    H25 - H28
   900   906   1 ;    H25 - O13
   900   912   1 ;    H25 - O15
   901   908   1 ;    H26 - H29
   901   909   1 ;    H26 - H30
   901   910   1 ;    H26 - O14
   902   904   1 ;    O11 - O12
   904   906   1 ;    O12 - O13
   904   912   1 ;    O12 - O15
   906   908   1 ;    O13 - H29
   906   909   1 ;    O13 - H30
   906   910   1 ;    O13 - O14
   906   913   1 ;    O13 - C19
   908   911   1 ;    H29 - H31
   909   911   1 ;    H30 - H31
   912   914   1 ;    O15 - C20
   912   918   1 ;    O15 - H32
   912   920   1 ;    O15 - H34
   912   923   1 ;    O15 - O16
   912   924   1 ;    O15 - C24
   912   931   1 ;    O15 - O19
   913   917   1 ;    C19 - C23
   913   919   1 ;    C19 - H33
   913   925   1 ;    C19 - H37
   913   926   1 ;    C19 - H38
   913   927   1 ;    C19 - O17
   913   929   1 ;    C19 - O18
   913   932   1 ;    C19 - H41
   914   916   1 ;    C20 - C22
   914   922   1 ;    C20 - H36
   914   932   1 ;    C20 - H41
   914   934   1 ;    C20 - C25
   915   920   1 ;    C21 - H34
   915   921   1 ;    C21 - H35
   915   923   1 ;    C21 - O16
   915   924   1 ;    C21 - C24
   915   930   1 ;    C21 - H40
   915   933   1 ;    C21 - O20
   916   918   1 ;    C22 - H32
   916   921   1 ;    C22 - H35
   916   928   1 ;    C22 - H39
   916   931   1 ;    C22 - O19
   916   933   1 ;    C22 - O20
   917   918   1 ;    C23 - H32
   917   920   1 ;    C23 - H34
   917   924   1 ;    C23 - C24
   917   930   1 ;    C23 - H40
   917   931   1 ;    C23 - O19
   917   936   1 ;    C23 - C27
   917   937   1 ;    C23 - C28
   917   940   1 ;    C23 - H43
   918   919   1 ;    H32 - H33
   918   922   1 ;    H32 - H36
   918   929   1 ;    H32 - O18
   918   932   1 ;    H32 - H41
   919   921   1 ;    H33 - H35
   919   923   1 ;    H33 - O16
   919   930   1 ;    H33 - H40
   919   931   1 ;    H33 - O19
   919   933   1 ;    H33 - O20
   920   922   1 ;    H34 - H36
   920   925   1 ;    H34 - H37
   920   926   1 ;    H34 - H38
   920   927   1 ;    H34 - O17
   921   929   1 ;    H35 - O18
   921   934   1 ;    H35 - C25
   922   923   1 ;    H36 - O16
   922   924   1 ;    H36 - C24
   922   931   1 ;    H36 - O19
   923   925   1 ;    O16 - H37
   923   926   1 ;    O16 - H38
   923   927   1 ;    O16 - O17
   923   929   1 ;    O16 - O18
   923   934   1 ;    O16 - C25
   925   928   1 ;    H37 - H39
   926   928   1 ;    H38 - H39
   929   931   1 ;    O18 - O19
   929   933   1 ;    O18 - O20
   933   938   1 ;    O20 - C29
   933   941   1 ;    O20 - H44
   933   943   1 ;    O20 - H46
   933   944   1 ;    O20 - O21
   933   948   1 ;    O20 - O23
   933   949   1 ;    O20 - C30
   934   935   1 ;    C25 - C26
   934   942   1 ;    C25 - H45
   934   945   1 ;    C25 - H47
   934   946   1 ;    C25 - O22
   934   950   1 ;    C25 - H49
   934   951   1 ;    C25 - H50
   934   952   1 ;    C25 - O24
   935   941   1 ;    C26 - H44
   935   943   1 ;    C26 - H46
   935   944   1 ;    C26 - O21
   935   947   1 ;    C26 - H48
   935   949   1 ;    C26 - C30
   935   957   1 ;    C26 - C33
   935   958   1 ;    C26 - C34
   935   964   1 ;    C26 - H56
   936   938   1 ;    C27 - C29
   936   939   1 ;    C27 - H42
   936   941   1 ;    C27 - H44
   936   944   1 ;    C27 - O21
   936   953   1 ;    C27 - H51
   936   954   1 ;    C27 - O25
   937   939   1 ;    C28 - H42
   937   943   1 ;    C28 - H46
   937   947   1 ;    C28 - H48
   937   948   1 ;    C28 - O23
   937   949   1 ;    C28 - C30
   937   954   1 ;    C28 - O25
   938   940   1 ;    C29 - H43
   938   945   1 ;    C29 - H47
   938   955   1 ;    C29 - C31
   939   942   1 ;    H42 - H45
   939   946   1 ;    H42 - O22
   939   955   1 ;    H42 - C31
   940   941   1 ;    H43 - H44
   940   943   1 ;    H43 - H46
   940   944   1 ;    H43 - O21
   940   948   1 ;    H43 - O23
   940   949   1 ;    H43 - C30
   941   942   1 ;    H44 - H45
   941   945   1 ;    H44 - H47
   941   946   1 ;    H44 - O22
   942   944   1 ;    H45 - O21
   942   947   1 ;    H45 - H48
   942   948   1 ;    H45 - O23
   942   954   1 ;    H45 - O25
   943   950   1 ;    H46 - H49
   943   951   1 ;    H46 - H50
   943   952   1 ;    H46 - O24
   944   946   1 ;    O21 - O22
   946   948   1 ;    O22 - O23
   946   954   1 ;    O22 - O25
   948   950   1 ;    O23 - H49
   948   951   1 ;    O23 - H50
   948   952   1 ;    O23 - O24
   948   955   1 ;    O23 - C31
   950   953   1 ;    H49 - H51
   951   953   1 ;    H50 - H51
   954   956   1 ;    O25 - C32
   954   960   1 ;    O25 - H52
   954   962   1 ;    O25 - H54
   954   965   1 ;    O25 - O26
   954   966   1 ;    O25 - C36
   954   973   1 ;    O25 - O29
   955   959   1 ;    C31 - C35
   955   961   1 ;    C31 - H53
   955   967   1 ;    C31 - H57
   955   968   1 ;    C31 - H58
   955   969   1 ;    C31 - O27
   955   971   1 ;    C31 - O28
   955   974   1 ;    C31 - H61
   956   958   1 ;    C32 - C34
   956   964   1 ;    C32 - H56
   956   974   1 ;    C32 - H61
   956   976   1 ;    C32 - C37
   957   962   1 ;    C33 - H54
   957   963   1 ;    C33 - H55
   957   965   1 ;    C33 - O26
   957   966   1 ;    C33 - C36
   957   972   1 ;    C33 - H60
   957   975   1 ;    C33 - O30
   958   960   1 ;    C34 - H52
   958   963   1 ;    C34 - H55
   958   970   1 ;    C34 - H59
   958   973   1 ;    C34 - O29
   958   975   1 ;    C34 - O30
   959   960   1 ;    C35 - H52
   959   962   1 ;    C35 - H54
   959   966   1 ;    C35 - C36
   959   972   1 ;    C35 - H60
   959   973   1 ;    C35 - O29
   959   978   1 ;    C35 - C39
   959   979   1 ;    C35 - C40
   959   982   1 ;    C35 - H63
   960   961   1 ;    H52 - H53
   960   964   1 ;    H52 - H56
   960   971   1 ;    H52 - O28
   960   974   1 ;    H52 - H61
   961   963   1 ;    H53 - H55
   961   965   1 ;    H53 - O26
   961   972   1 ;    H53 - H60
   961   973   1 ;    H53 - O29
   961   975   1 ;    H53 - O30
   962   964   1 ;    H54 - H56
   962   967   1 ;    H54 - H57
   962   968   1 ;    H54 - H58
   962   969   1 ;    H54 - O27
   963   971   1 ;    H55 - O28
   963   976   1 ;    H55 - C37
   964   965   1 ;    H56 - O26
   964   966   1 ;    H56 - C36
   964   973   1 ;    H56 - O29
   965   967   1 ;    O26 - H57
   965   968   1 ;    O26 - H58
   965   969   1 ;    O26 - O27
   965   971   1 ;    O26 - O28
   965   976   1 ;    O26 - C37
   967   970   1 ;    H57 - H59
   968   970   1 ;    H58 - H59
   971   973   1 ;    O28 - O29
   971   975   1 ;    O28 - O30
   975   980   1 ;    O30 - C41
   975   983   1 ;    O30 - H64
   975   985   1 ;    O30 - H66
   975   986   1 ;    O30 - O31
   975   990   1 ;    O30 - O33
   975   991   1 ;    O30 - C42
   976   977   1 ;    C37 - C38
   976   984   1 ;    C37 - H65
   976   987   1 ;    C37 - H67
   976   988   1 ;    C37 - O32
   976   992   1 ;    C37 - H69
   976   993   1 ;    C37 - H70
   976   994   1 ;    C37 - O34
   977   983   1 ;    C38 - H64
   977   985   1 ;    C38 - H66
   977   986   1 ;    C38 - O31
   977   989   1 ;    C38 - H68
   977   991   1 ;    C38 - C42
   977   999   1 ;    C38 - C45
   977  1000   1 ;    C38 - C46
   977  1006   1 ;    C38 - H76
   978   980   1 ;    C39 - C41
   978   981   1 ;    C39 - H62
   978   983   1 ;    C39 - H64
   978   986   1 ;    C39 - O31
   978   995   1 ;    C39 - H71
   978   996   1 ;    C39 - O35
   979   981   1 ;    C40 - H62
   979   985   1 ;    C40 - H66
   979   989   1 ;    C40 - H68
   979   990   1 ;    C40 - O33
   979   991   1 ;    C40 - C42
   979   996   1 ;    C40 - O35
   980   982   1 ;    C41 - H63
   980   987   1 ;    C41 - H67
   980   997   1 ;    C41 - C43
   981   984   1 ;    H62 - H65
   981   988   1 ;    H62 - O32
   981   997   1 ;    H62 - C43
   982   983   1 ;    H63 - H64
   982   985   1 ;    H63 - H66
   982   986   1 ;    H63 - O31
   982   990   1 ;    H63 - O33
   982   991   1 ;    H63 - C42
   983   984   1 ;    H64 - H65
   983   987   1 ;    H64 - H67
   983   988   1 ;    H64 - O32
   984   986   1 ;    H65 - O31
   984   989   1 ;    H65 - H68
   984   990   1 ;    H65 - O33
   984   996   1 ;    H65 - O35
   985   992   1 ;    H66 - H69
   985   993   1 ;    H66 - H70
   985   994   1 ;    H66 - O34
   986   988   1 ;    O31 - O32
   988   990   1 ;    O32 - O33
   988   996   1 ;    O32 - O35
   990   992   1 ;    O33 - H69
   990   993   1 ;    O33 - H70
   990   994   1 ;    O33 - O34
   990   997   1 ;    O33 - C43
   992   995   1 ;    H69 - H71
   993   995   1 ;    H70 - H71
   996   998   1 ;    O35 - C44
   996  1002   1 ;    O35 - H72
   996  1004   1 ;    O35 - H74
   996  1007   1 ;    O35 - O36
   996  1008   1 ;    O35 - C48
   996  1015   1 ;    O35 - O39
   997  1001   1 ;    C43 - C47
   997  1003   1 ;    C43 - H73
   997  1009   1 ;    C43 - H77
   997  1010   1 ;    C43 - H78
   997  1011   1 ;    C43 - O37
   997  1013   1 ;    C43 - O38
   997  1016   1 ;    C43 - H81
   998  1000   1 ;    C44 - C46
   998  1006   1 ;    C44 - H76
   998  1016   1 ;    C44 - H81
   998  1018   1 ;    C44 - C49
   999  1004   1 ;    C45 - H74
   999  1005   1 ;    C45 - H75
   999  1007   1 ;    C45 - O36
   999  1008   1 ;    C45 - C48
   999  1014   1 ;    C45 - H80
   999  1017   1 ;    C45 - O40
  1000  1002   1 ;    C46 - H72
  1000  1005   1 ;    C46 - H75
  1000  1012   1 ;    C46 - H79
  1000  1015   1 ;    C46 - O39
  1000  1017   1 ;    C46 - O40
  1001  1002   1 ;    C47 - H72
  1001  1004   1 ;    C47 - H74
  1001  1008   1 ;    C47 - C48
  1001  1014   1 ;    C47 - H80
  1001  1015   1 ;    C47 - O39
  1001  1020   1 ;    C47 - C51
  1001  1021   1 ;    C47 - C52
  1001  1024   1 ;    C47 - H83
  1002  1003   1 ;    H72 - H73
  1002  1006   1 ;    H72 - H76
  1002  1013   1 ;    H72 - O38
  1002  1016   1 ;    H72 - H81
  1003  1005   1 ;    H73 - H75
  1003  1007   1 ;    H73 - O36
  1003  1014   1 ;    H73 - H80
  1003  1015   1 ;    H73 - O39
  1003  1017   1 ;    H73 - O40
  1004  1006   1 ;    H74 - H76
  1004  1009   1 ;    H74 - H77
  1004  1010   1 ;    H74 - H78
  1004  1011   1 ;    H74 - O37
  1005  1013   1 ;    H75 - O38
  1005  1018   1 ;    H75 - C49
  1006  1007   1 ;    H76 - O36
  1006  1008   1 ;    H76 - C48
  1006  1015   1 ;    H76 - O39
  1007  1009   1 ;    O36 - H77
  1007  1010   1 ;    O36 - H78
  1007  1011   1 ;    O36 - O37
  1007  1013   1 ;    O36 - O38
  1007  1018   1 ;    O36 - C49
  1009  1012   1 ;    H77 - H79
  1010  1012   1 ;    H78 - H79
  1013  1015   1 ;    O38 - O39
  1013  1017   1 ;    O38 - O40
  1017  1022   1 ;    O40 - C53
  1017  1025   1 ;    O40 - H84
  1017  1027   1 ;    O40 - H86
  1017  1028   1 ;    O40 - O41
  1017  1032   1 ;    O40 - O43
  1017  1033   1 ;    O40 - C54
  1018  1019   1 ;    C49 - C50
  1018  1026   1 ;    C49 - H85
  1018  1029   1 ;    C49 - H87
  1018  1030   1 ;    C49 - O42
  1018  1034   1 ;    C49 - H89
  1018  1035   1 ;    C49 - H90
  1018  1036   1 ;    C49 - O44
  1019  1025   1 ;    C50 - H84
  1019  1027   1 ;    C50 - H86
  1019  1028   1 ;    C50 - O41
  1019  1031   1 ;    C50 - H88
  1019  1033   1 ;    C50 - C54
  1019  1041   1 ;    C50 - C57
  1019  1042   1 ;    C50 - C58
  1019  1048   1 ;    C50 - H96
  1020  1022   1 ;    C51 - C53
  1020  1023   1 ;    C51 - H82
  1020  1025   1 ;    C51 - H84
  1020  1028   1 ;    C51 - O41
  1020  1037   1 ;    C51 - H91
  1020  1038   1 ;    C51 - O45
  1021  1023   1 ;    C52 - H82
  1021  1027   1 ;    C52 - H86
  1021  1031   1 ;    C52 - H88
  1021  1032   1 ;    C52 - O43
  1021  1033   1 ;    C52 - C54
  1021  1038   1 ;    C52 - O45
  1022  1024   1 ;    C53 - H83
  1022  1029   1 ;    C53 - H87
  1022  1039   1 ;    C53 - C55
  1023  1026   1 ;    H82 - H85
  1023  1030   1 ;    H82 - O42
  1023  1039   1 ;    H82 - C55
  1024  1025   1 ;    H83 - H84
  1024  1027   1 ;    H83 - H86
  1024  1028   1 ;    H83 - O41
  1024  1032   1 ;    H83 - O43
  1024  1033   1 ;    H83 - C54
  1025  1026   1 ;    H84 - H85
  1025  1029   1 ;    H84 - H87
  1025  1030   1 ;    H84 - O42
  1026  1028   1 ;    H85 - O41
  1026  1031   1 ;    H85 - H88
  1026  1032   1 ;    H85 - O43
  1026  1038   1 ;    H85 - O45
  1027  1034   1 ;    H86 - H89
  1027  1035   1 ;    H86 - H90
  1027  1036   1 ;    H86 - O44
  1028  1030   1 ;    O41 - O42
  1030  1032   1 ;    O42 - O43
  1030  1038   1 ;    O42 - O45
  1032  1034   1 ;    O43 - H89
  1032  1035   1 ;    O43 - H90
  1032  1036   1 ;    O43 - O44
  1032  1039   1 ;    O43 - C55
  1034  1037   1 ;    H89 - H91
  1035  1037   1 ;    H90 - H91
  1038  1040   1 ;    O45 - C56
  1038  1044   1 ;    O45 - H92
  1038  1046   1 ;    O45 - H94
  1038  1049   1 ;    O45 - O46
  1038  1050   1 ;    O45 - C60
  1038  1057   1 ;    O45 - O49
  1039  1043   1 ;    C55 - C59
  1039  1045   1 ;    C55 - H93
  1039  1051   1 ;    C55 - H97
  1039  1052   1 ;    C55 - H98
  1039  1053   1 ;    C55 - O47
  1039  1055   1 ;    C55 - O48
  1039  1058   1 ;    C55 - H101
  1040  1042   1 ;    C56 - C58
  1040  1048   1 ;    C56 - H96
  1040  1058   1 ;    C56 - H101
  1040  1060   1 ;    C56 - H102
  1041  1046   1 ;    C57 - H94
  1041  1047   1 ;    C57 - H95
  1041  1049   1 ;    C57 - O46
  1041  1050   1 ;    C57 - C60
  1041  1056   1 ;    C57 - H100
  1041  1059   1 ;    C57 - O50
  1042  1044   1 ;    C58 - H92
  1042  1047   1 ;    C58 - H95
  1042  1054   1 ;    C58 - H99
  1042  1057   1 ;    C58 - O49
  1042  1059   1 ;    C58 - O50
  1043  1044   1 ;    C59 - H92
  1043  1046   1 ;    C59 - H94
  1043  1050   1 ;    C59 - C60
  1043  1056   1 ;    C59 - H100
  1043  1057   1 ;    C59 - O49
  1044  1045   1 ;    H92 - H93
  1044  1048   1 ;    H92 - H96
  1044  1055   1 ;    H92 - O48
  1044  1058   1 ;    H92 - H101
  1045  1047   1 ;    H93 - H95
  1045  1049   1 ;    H93 - O46
  1045  1056   1 ;    H93 - H100
  1045  1057   1 ;    H93 - O49
  1045  1059   1 ;    H93 - O50
  1046  1048   1 ;    H94 - H96
  1046  1051   1 ;    H94 - H97
  1046  1052   1 ;    H94 - H98
  1046  1053   1 ;    H94 - O47
  1047  1055   1 ;    H95 - O48
  1047  1060   1 ;    H95 - H102
  1048  1049   1 ;    H96 - O46
  1048  1050   1 ;    H96 - C60
  1048  1057   1 ;    H96 - O49
  1049  1051   1 ;    O46 - H97
  1049  1052   1 ;    O46 - H98
  1049  1053   1 ;    O46 - O47
  1049  1055   1 ;    O46 - O48
  1049  1060   1 ;    O46 - H102
  1051  1054   1 ;    H97 - H99
  1052  1054   1 ;    H98 - H99
  1055  1057   1 ;    O48 - O49
  1055  1059   1 ;    O48 - O50
  1061  1066   1 ;     H1 - C5
  1061  1069   1 ;     H1 - H4
  1061  1071   1 ;     H1 - H6
  1061  1072   1 ;     H1 - O1
  1061  1076   1 ;     H1 - O3
  1061  1077   1 ;     H1 - C6
  1062  1063   1 ;     C1 - C2
  1062  1070   1 ;     C1 - H5
  1062  1073   1 ;     C1 - H7
  1062  1074   1 ;     C1 - O2
  1062  1078   1 ;     C1 - H9
  1062  1079   1 ;     C1 - H10
  1062  1080   1 ;     C1 - O4
  1063  1069   1 ;     C2 - H4
  1063  1071   1 ;     C2 - H6
  1063  1072   1 ;     C2 - O1
  1063  1075   1 ;     C2 - H8
  1063  1077   1 ;     C2 - C6
  1063  1085   1 ;     C2 - C9
  1063  1086   1 ;     C2 - C10
  1063  1092   1 ;     C2 - H16
  1064  1066   1 ;     C3 - C5
  1064  1067   1 ;     C3 - H2
  1064  1069   1 ;     C3 - H4
  1064  1072   1 ;     C3 - O1
  1064  1081   1 ;     C3 - H11
  1064  1082   1 ;     C3 - O5
  1065  1067   1 ;     C4 - H2
  1065  1071   1 ;     C4 - H6
  1065  1075   1 ;     C4 - H8
  1065  1076   1 ;     C4 - O3
  1065  1077   1 ;     C4 - C6
  1065  1082   1 ;     C4 - O5
  1066  1068   1 ;     C5 - H3
  1066  1073   1 ;     C5 - H7
  1066  1083   1 ;     C5 - C7
  1067  1070   1 ;     H2 - H5
  1067  1074   1 ;     H2 - O2
  1067  1083   1 ;     H2 - C7
  1068  1069   1 ;     H3 - H4
  1068  1071   1 ;     H3 - H6
  1068  1072   1 ;     H3 - O1
  1068  1076   1 ;     H3 - O3
  1068  1077   1 ;     H3 - C6
  1069  1070   1 ;     H4 - H5
  1069  1073   1 ;     H4 - H7
  1069  1074   1 ;     H4 - O2
  1070  1072   1 ;     H5 - O1
  1070  1075   1 ;     H5 - H8
  1070  1076   1 ;     H5 - O3
  1070  1082   1 ;     H5 - O5
  1071  1078   1 ;     H6 - H9
  1071  1079   1 ;     H6 - H10
  1071  1080   1 ;     H6 - O4
  1072  1074   1 ;     O1 - O2
  1074  1076   1 ;     O2 - O3
  1074  1082   1 ;     O2 - O5
  1076  1078   1 ;     O3 - H9
  1076  1079   1 ;     O3 - H10
  1076  1080   1 ;     O3 - O4
  1076  1083   1 ;     O3 - C7
  1078  1081   1 ;     H9 - H11
  1079  1081   1 ;    H10 - H11
  1082  1084   1 ;     O5 - C8
  1082  1088   1 ;     O5 - H12
  1082  1090   1 ;     O5 - H14
  1082  1093   1 ;     O5 - O6
  1082  1094   1 ;     O5 - C12
  1082  1101   1 ;     O5 - O9
  1083  1087   1 ;     C7 - C11
  1083  1089   1 ;     C7 - H13
  1083  1095   1 ;     C7 - H17
  1083  1096   1 ;     C7 - H18
  1083  1097   1 ;     C7 - O7
  1083  1099   1 ;     C7 - O8
  1083  1102   1 ;     C7 - H21
  1084  1086   1 ;     C8 - C10
  1084  1092   1 ;     C8 - H16
  1084  1102   1 ;     C8 - H21
  1084  1104   1 ;     C8 - C13
  1085  1090   1 ;     C9 - H14
  1085  1091   1 ;     C9 - H15
  1085  1093   1 ;     C9 - O6
  1085  1094   1 ;     C9 - C12
  1085  1100   1 ;     C9 - H20
  1085  1103   1 ;     C9 - O10
  1086  1088   1 ;    C10 - H12
  1086  1091   1 ;    C10 - H15
  1086  1098   1 ;    C10 - H19
  1086  1101   1 ;    C10 - O9
  1086  1103   1 ;    C10 - O10
  1087  1088   1 ;    C11 - H12
  1087  1090   1 ;    C11 - H14
  1087  1094   1 ;    C11 - C12
  1087  1100   1 ;    C11 - H20
  1087  1101   1 ;    C11 - O9
  1087  1106   1 ;    C11 - C15
  1087  1107   1 ;    C11 - C16
  1087  1110   1 ;    C11 - H23
  1088  1089   1 ;    H12 - H13
  1088  1092   1 ;    H12 - H16
  1088  1099   1 ;    H12 - O8
  1088  1102   1 ;    H12 - H21
  1089  1091   1 ;    H13 - H15
  1089  1093   1 ;    H13 - O6
  1089  1100   1 ;    H13 - H20
  1089  1101   1 ;    H13 - O9
  1089  1103   1 ;    H13 - O10
  1090  1092   1 ;    H14 - H16
  1090  1095   1 ;    H14 - H17
  1090  1096   1 ;    H14 - H18
  1090  1097   1 ;    H14 - O7
  1091  1099   1 ;    H15 - O8
  1091  1104   1 ;    H15 - C13
  1092  1093   1 ;    H16 - O6
  1092  1094   1 ;    H16 - C12
  1092  1101   1 ;    H16 - O9
  1093  1095   1 ;     O6 - H17
  1093  1096   1 ;     O6 - H18
  1093  1097   1 ;     O6 - O7
  1093  1099   1 ;     O6 - O8
  1093  1104   1 ;     O6 - C13
  1095  1098   1 ;    H17 - H19
  1096  1098   1 ;    H18 - H19
  1099  1101   1 ;     O8 - O9
  1099  1103   1 ;     O8 - O10
  1103  1108   1 ;    O10 - C17
  1103  1111   1 ;    O10 - H24
  1103  1113   1 ;    O10 - H26
  1103  1114   1 ;    O10 - O11
  1103  1118   1 ;    O10 - O13
  1103  1119   1 ;    O10 - C18
  1104  1105   1 ;    C13 - C14
  1104  1112   1 ;    C13 - H25
  1104  1115   1 ;    C13 - H27
  1104  1116   1 ;    C13 - O12
  1104  1120   1 ;    C13 - H29
  1104  1121   1 ;    C13 - H30
  1104  1122   1 ;    C13 - O14
  1105  1111   1 ;    C14 - H24
  1105  1113   1 ;    C14 - H26
  1105  1114   1 ;    C14 - O11
  1105  1117   1 ;    C14 - H28
  1105  1119   1 ;    C14 - C18
  1105  1127   1 ;    C14 - C21
  1105  1128   1 ;    C14 - C22
  1105  1134   1 ;    C14 - H36
  1106  1108   1 ;    C15 - C17
  1106  1109   1 ;    C15 - H22
  1106  1111   1 ;    C15 - H24
  1106  1114   1 ;    C15 - O11
  1106  1123   1 ;    C15 - H31
  1106  1124   1 ;    C15 - O15
  1107  1109   1 ;    C16 - H22
  1107  1113   1 ;    C16 - H26
  1107  1117   1 ;    C16 - H28
  1107  1118   1 ;    C16 - O13
  1107  1119   1 ;    C16 - C18
  1107  1124   1 ;    C16 - O15
  1108  1110   1 ;    C17 - H23
  1108  1115   1 ;    C17 - H27
  1108  1125   1 ;    C17 - C19
  1109  1112   1 ;    H22 - H25
  1109  1116   1 ;    H22 - O12
  1109  1125   1 ;    H22 - C19
  1110  1111   1 ;    H23 - H24
  1110  1113   1 ;    H23 - H26
  1110  1114   1 ;    H23 - O11
  1110  1118   1 ;    H23 - O13
  1110  1119   1 ;    H23 - C18
  1111  1112   1 ;    H24 - H25
  1111  1115   1 ;    H24 - H27
  1111  1116   1 ;    H24 - O12
  1112  1114   1 ;    H25 - O11
  1112  1117   1 ;    H25 - H28
  1112  1118   1 ;    H25 - O13
  1112  1124   1 ;    H25 - O15
  1113  1120   1 ;    H26 - H29
  1113  1121   1 ;    H26 - H30
  1113  1122   1 ;    H26 - O14
  1114  1116   1 ;    O11 - O12
  1116  1118   1 ;    O12 - O13
  1116  1124   1 ;    O12 - O15
  1118  1120   1 ;    O13 - H29
  1118  1121   1 ;    O13 - H30
  1118  1122   1 ;    O13 - O14
  1118  1125   1 ;    O13 - C19
  1120  1123   1 ;    H29 - H31
  1121  1123   1 ;    H30 - H31
  1124  1126   1 ;    O15 - C20
  1124  1130   1 ;    O15 - H32
  1124  1132   1 ;    O15 - H34
  1124  1135   1 ;    O15 - O16
  1124  1136   1 ;    O15 - C24
  1124  1143   1 ;    O15 - O19
  1125  1129   1 ;    C19 - C23
  1125  1131   1 ;    C19 - H33
  1125  1137   1 ;    C19 - H37
  1125  1138   1 ;    C19 - H38
  1125  1139   1 ;    C19 - O17
  1125  1141   1 ;    C19 - O18
  1125  1144   1 ;    C19 - H41
  1126  1128   1 ;    C20 - C22
  1126  1134   1 ;    C20 - H36
  1126  1144   1 ;    C20 - H41
  1126  1146   1 ;    C20 - C25
  1127  1132   1 ;    C21 - H34
  1127  1133   1 ;    C21 - H35
  1127  1135   1 ;    C21 - O16
  1127  1136   1 ;    C21 - C24
  1127  1142   1 ;    C21 - H40
  1127  1145   1 ;    C21 - O20
  1128  1130   1 ;    C22 - H32
  1128  1133   1 ;    C22 - H35
  1128  1140   1 ;    C22 - H39
  1128  1143   1 ;    C22 - O19
  1128  1145   1 ;    C22 - O20
  1129  1130   1 ;    C23 - H32
  1129  1132   1 ;    C23 - H34
  1129  1136   1 ;    C23 - C24
  1129  1142   1 ;    C23 - H40
  1129  1143   1 ;    C23 - O19
  1129  1148   1 ;    C23 - C27
  1129  1149   1 ;    C23 - C28
  1129  1152   1 ;    C23 - H43
  1130  1131   1 ;    H32 - H33
  1130  1134   1 ;    H32 - H36
  1130  1141   1 ;    H32 - O18
  1130  1144   1 ;    H32 - H41
  1131  1133   1 ;    H33 - H35
  1131  1135   1 ;    H33 - O16
  1131  1142   1 ;    H33 - H40
  1131  1143   1 ;    H33 - O19
  1131  1145   1 ;    H33 - O20
  1132  1134   1 ;    H34 - H36
  1132  1137   1 ;    H34 - H37
  1132  1138   1 ;    H34 - H38
  1132  1139   1 ;    H34 - O17
  1133  1141   1 ;    H35 - O18
  1133  1146   1 ;    H35 - C25
  1134  1135   1 ;    H36 - O16
  1134  1136   1 ;    H36 - C24
  1134  1143   1 ;    H36 - O19
  1135  1137   1 ;    O16 - H37
  1135  1138   1 ;    O16 - H38
  1135  1139   1 ;    O16 - O17
  1135  1141   1 ;    O16 - O18
  1135  1146   1 ;    O16 - C25
  1137  1140   1 ;    H37 - H39
  1138  1140   1 ;    H38 - H39
  1141  1143   1 ;    O18 - O19
  1141  1145   1 ;    O18 - O20
  1145  1150   1 ;    O20 - C29
  1145  1153   1 ;    O20 - H44
  1145  1155   1 ;    O20 - H46
  1145  1156   1 ;    O20 - O21
  1145  1160   1 ;    O20 - O23
  1145  1161   1 ;    O20 - C30
  1146  1147   1 ;    C25 - C26
  1146  1154   1 ;    C25 - H45
  1146  1157   1 ;    C25 - H47
  1146  1158   1 ;    C25 - O22
  1146  1162   1 ;    C25 - H49
  1146  1163   1 ;    C25 - H50
  1146  1164   1 ;    C25 - O24
  1147  1153   1 ;    C26 - H44
  1147  1155   1 ;    C26 - H46
  1147  1156   1 ;    C26 - O21
  1147  1159   1 ;    C26 - H48
  1147  1161   1 ;    C26 - C30
  1147  1169   1 ;    C26 - C33
  1147  1170   1 ;    C26 - C34
  1147  1176   1 ;    C26 - H56
  1148  1150   1 ;    C27 - C29
  1148  1151   1 ;    C27 - H42
  1148  1153   1 ;    C27 - H44
  1148  1156   1 ;    C27 - O21
  1148  1165   1 ;    C27 - H51
  1148  1166   1 ;    C27 - O25
  1149  1151   1 ;    C28 - H42
  1149  1155   1 ;    C28 - H46
  1149  1159   1 ;    C28 - H48
  1149  1160   1 ;    C28 - O23
  1149  1161   1 ;    C28 - C30
  1149  1166   1 ;    C28 - O25
  1150  1152   1 ;    C29 - H43
  1150  1157   1 ;    C29 - H47
  1150  1167   1 ;    C29 - C31
  1151  1154   1 ;    H42 - H45
  1151  1158   1 ;    H42 - O22
  1151  1167   1 ;    H42 - C31
  1152  1153   1 ;    H43 - H44
  1152  1155   1 ;    H43 - H46
  1152  1156   1 ;    H43 - O21
  1152  1160   1 ;    H43 - O23
  1152  1161   1 ;    H43 - C30
  1153  1154   1 ;    H44 - H45
  1153  1157   1 ;    H44 - H47
  1153  1158   1 ;    H44 - O22
  1154  1156   1 ;    H45 - O21
  1154  1159   1 ;    H45 - H48
  1154  1160   1 ;    H45 - O23
  1154  1166   1 ;    H45 - O25
  1155  1162   1 ;    H46 - H49
  1155  1163   1 ;    H46 - H50
  1155  1164   1 ;    H46 - O24
  1156  1158   1 ;    O21 - O22
  1158  1160   1 ;    O22 - O23
  1158  1166   1 ;    O22 - O25
  1160  1162   1 ;    O23 - H49
  1160  1163   1 ;    O23 - H50
  1160  1164   1 ;    O23 - O24
  1160  1167   1 ;    O23 - C31
  1162  1165   1 ;    H49 - H51
  1163  1165   1 ;    H50 - H51
  1166  1168   1 ;    O25 - C32
  1166  1172   1 ;    O25 - H52
  1166  1174   1 ;    O25 - H54
  1166  1177   1 ;    O25 - O26
  1166  1178   1 ;    O25 - C36
  1166  1185   1 ;    O25 - O29
  1167  1171   1 ;    C31 - C35
  1167  1173   1 ;    C31 - H53
  1167  1179   1 ;    C31 - H57
  1167  1180   1 ;    C31 - H58
  1167  1181   1 ;    C31 - O27
  1167  1183   1 ;    C31 - O28
  1167  1186   1 ;    C31 - H61
  1168  1170   1 ;    C32 - C34
  1168  1176   1 ;    C32 - H56
  1168  1186   1 ;    C32 - H61
  1168  1188   1 ;    C32 - C37
  1169  1174   1 ;    C33 - H54
  1169  1175   1 ;    C33 - H55
  1169  1177   1 ;    C33 - O26
  1169  1178   1 ;    C33 - C36
  1169  1184   1 ;    C33 - H60
  1169  1187   1 ;    C33 - O30
  1170  1172   1 ;    C34 - H52
  1170  1175   1 ;    C34 - H55
  1170  1182   1 ;    C34 - H59
  1170  1185   1 ;    C34 - O29
  1170  1187   1 ;    C34 - O30
  1171  1172   1 ;    C35 - H52
  1171  1174   1 ;    C35 - H54
  1171  1178   1 ;    C35 - C36
  1171  1184   1 ;    C35 - H60
  1171  1185   1 ;    C35 - O29
  1171  1190   1 ;    C35 - C39
  1171  1191   1 ;    C35 - C40
  1171  1194   1 ;    C35 - H63
  1172  1173   1 ;    H52 - H53
  1172  1176   1 ;    H52 - H56
  1172  1183   1 ;    H52 - O28
  1172  1186   1 ;    H52 - H61
  1173  1175   1 ;    H53 - H55
  1173  1177   1 ;    H53 - O26
  1173  1184   1 ;    H53 - H60
  1173  1185   1 ;    H53 - O29
  1173  1187   1 ;    H53 - O30
  1174  1176   1 ;    H54 - H56
  1174  1179   1 ;    H54 - H57
  1174  1180   1 ;    H54 - H58
  1174  1181   1 ;    H54 - O27
  1175  1183   1 ;    H55 - O28
  1175  1188   1 ;    H55 - C37
  1176  1177   1 ;    H56 - O26
  1176  1178   1 ;    H56 - C36
  1176  1185   1 ;    H56 - O29
  1177  1179   1 ;    O26 - H57
  1177  1180   1 ;    O26 - H58
  1177  1181   1 ;    O26 - O27
  1177  1183   1 ;    O26 - O28
  1177  1188   1 ;    O26 - C37
  1179  1182   1 ;    H57 - H59
  1180  1182   1 ;    H58 - H59
  1183  1185   1 ;    O28 - O29
  1183  1187   1 ;    O28 - O30
  1187  1192   1 ;    O30 - C41
  1187  1195   1 ;    O30 - H64
  1187  1197   1 ;    O30 - H66
  1187  1198   1 ;    O30 - O31
  1187  1202   1 ;    O30 - O33
  1187  1203   1 ;    O30 - C42
  1188  1189   1 ;    C37 - C38
  1188  1196   1 ;    C37 - H65
  1188  1199   1 ;    C37 - H67
  1188  1200   1 ;    C37 - O32
  1188  1204   1 ;    C37 - H69
  1188  1205   1 ;    C37 - H70
  1188  1206   1 ;    C37 - O34
  1189  1195   1 ;    C38 - H64
  1189  1197   1 ;    C38 - H66
  1189  1198   1 ;    C38 - O31
  1189  1201   1 ;    C38 - H68
  1189  1203   1 ;    C38 - C42
  1189  1211   1 ;    C38 - C45
  1189  1212   1 ;    C38 - C46
  1189  1218   1 ;    C38 - H76
  1190  1192   1 ;    C39 - C41
  1190  1193   1 ;    C39 - H62
  1190  1195   1 ;    C39 - H64
  1190  1198   1 ;    C39 - O31
  1190  1207   1 ;    C39 - H71
  1190  1208   1 ;    C39 - O35
  1191  1193   1 ;    C40 - H62
  1191  1197   1 ;    C40 - H66
  1191  1201   1 ;    C40 - H68
  1191  1202   1 ;    C40 - O33
  1191  1203   1 ;    C40 - C42
  1191  1208   1 ;    C40 - O35
  1192  1194   1 ;    C41 - H63
  1192  1199   1 ;    C41 - H67
  1192  1209   1 ;    C41 - C43
  1193  1196   1 ;    H62 - H65
  1193  1200   1 ;    H62 - O32
  1193  1209   1 ;    H62 - C43
  1194  1195   1 ;    H63 - H64
  1194  1197   1 ;    H63 - H66
  1194  1198   1 ;    H63 - O31
  1194  1202   1 ;    H63 - O33
  1194  1203   1 ;    H63 - C42
  1195  1196   1 ;    H64 - H65
  1195  1199   1 ;    H64 - H67
  1195  1200   1 ;    H64 - O32
  1196  1198   1 ;    H65 - O31
  1196  1201   1 ;    H65 - H68
  1196  1202   1 ;    H65 - O33
  1196  1208   1 ;    H65 - O35
  1197  1204   1 ;    H66 - H69
  1197  1205   1 ;    H66 - H70
  1197  1206   1 ;    H66 - O34
  1198  1200   1 ;    O31 - O32
  1200  1202   1 ;    O32 - O33
  1200  1208   1 ;    O32 - O35
  1202  1204   1 ;    O33 - H69
  1202  1205   1 ;    O33 - H70
  1202  1206   1 ;    O33 - O34
  1202  1209   1 ;    O33 - C43
  1204  1207   1 ;    H69 - H71
  1205  1207   1 ;    H70 - H71
  1208  1210   1 ;    O35 - C44
  1208  1214   1 ;    O35 - H72
  1208  1216   1 ;    O35 - H74
  1208  1219   1 ;    O35 - O36
  1208  1220   1 ;    O35 - C48
  1208  1227   1 ;    O35 - O39
  1209  1213   1 ;    C43 - C47
  1209  1215   1 ;    C43 - H73
  1209  1221   1 ;    C43 - H77
  1209  1222   1 ;    C43 - H78
  1209  1223   1 ;    C43 - O37
  1209  1225   1 ;    C43 - O38
  1209  1228   1 ;    C43 - H81
  1210  1212   1 ;    C44 - C46
  1210  1218   1 ;    C44 - H76
  1210  1228   1 ;    C44 - H81
  1210  1230   1 ;    C44 - C49
  1211  1216   1 ;    C45 - H74
  1211  1217   1 ;    C45 - H75
  1211  1219   1 ;    C45 - O36
  1211  1220   1 ;    C45 - C48
  1211  1226   1 ;    C45 - H80
  1211  1229   1 ;    C45 - O40
  1212  1214   1 ;    C46 - H72
  1212  1217   1 ;    C46 - H75
  1212  1224   1 ;    C46 - H79
  1212  1227   1 ;    C46 - O39
  1212  1229   1 ;    C46 - O40
  1213  1214   1 ;    C47 - H72
  1213  1216   1 ;    C47 - H74
  1213  1220   1 ;    C47 - C48
  1213  1226   1 ;    C47 - H80
  1213  1227   1 ;    C47 - O39
  1213  1232   1 ;    C47 - C51
  1213  1233   1 ;    C47 - C52
  1213  1236   1 ;    C47 - H83
  1214  1215   1 ;    H72 - H73
  1214  1218   1 ;    H72 - H76
  1214  1225   1 ;    H72 - O38
  1214  1228   1 ;    H72 - H81
  1215  1217   1 ;    H73 - H75
  1215  1219   1 ;    H73 - O36
  1215  1226   1 ;    H73 - H80
  1215  1227   1 ;    H73 - O39
  1215  1229   1 ;    H73 - O40
  1216  1218   1 ;    H74 - H76
  1216  1221   1 ;    H74 - H77
  1216  1222   1 ;    H74 - H78
  1216  1223   1 ;    H74 - O37
  1217  1225   1 ;    H75 - O38
  1217  1230   1 ;    H75 - C49
  1218  1219   1 ;    H76 - O36
  1218  1220   1 ;    H76 - C48
  1218  1227   1 ;    H76 - O39
  1219  1221   1 ;    O36 - H77
  1219  1222   1 ;    O36 - H78
  1219  1223   1 ;    O36 - O37
  1219  1225   1 ;    O36 - O38
  1219  1230   1 ;    O36 - C49
  1221  1224   1 ;    H77 - H79
  1222  1224   1 ;    H78 - H79
  1225  1227   1 ;    O38 - O39
  1225  1229   1 ;    O38 - O40
  1229  1234   1 ;    O40 - C53
  1229  1237   1 ;    O40 - H84
  1229  1239   1 ;    O40 - H86
  1229  1240   1 ;    O40 - O41
  1229  1244   1 ;    O40 - O43
  1229  1245   1 ;    O40 - C54
  1230  1231   1 ;    C49 - C50
  1230  1238   1 ;    C49 - H85
  1230  1241   1 ;    C49 - H87
  1230  1242   1 ;    C49 - O42
  1230  1246   1 ;    C49 - H89
  1230  1247   1 ;    C49 - H90
  1230  1248   1 ;    C49 - O44
  1231  1237   1 ;    C50 - H84
  1231  1239   1 ;    C50 - H86
  1231  1240   1 ;    C50 - O41
  1231  1243   1 ;    C50 - H88
  1231  1245   1 ;    C50 - C54
  1231  1253   1 ;    C50 - C57
  1231  1254   1 ;    C50 - C58
  1231  1260   1 ;    C50 - H96
  1232  1234   1 ;    C51 - C53
  1232  1235   1 ;    C51 - H82
  1232  1237   1 ;    C51 - H84
  1232  1240   1 ;    C51 - O41
  1232  1249   1 ;    C51 - H91
  1232  1250   1 ;    C51 - O45
  1233  1235   1 ;    C52 - H82
  1233  1239   1 ;    C52 - H86
  1233  1243   1 ;    C52 - H88
  1233  1244   1 ;    C52 - O43
  1233  1245   1 ;    C52 - C54
  1233  1250   1 ;    C52 - O45
  1234  1236   1 ;    C53 - H83
  1234  1241   1 ;    C53 - H87
  1234  1251   1 ;    C53 - C55
  1235  1238   1 ;    H82 - H85
  1235  1242   1 ;    H82 - O42
  1235  1251   1 ;    H82 - C55
  1236  1237   1 ;    H83 - H84
  1236  1239   1 ;    H83 - H86
  1236  1240   1 ;    H83 - O41
  1236  1244   1 ;    H83 - O43
  1236  1245   1 ;    H83 - C54
  1237  1238   1 ;    H84 - H85
  1237  1241   1 ;    H84 - H87
  1237  1242   1 ;    H84 - O42
  1238  1240   1 ;    H85 - O41
  1238  1243   1 ;    H85 - H88
  1238  1244   1 ;    H85 - O43
  1238  1250   1 ;    H85 - O45
  1239  1246   1 ;    H86 - H89
  1239  1247   1 ;    H86 - H90
  1239  1248   1 ;    H86 - O44
  1240  1242   1 ;    O41 - O42
  1242  1244   1 ;    O42 - O43
  1242  1250   1 ;    O42 - O45
  1244  1246   1 ;    O43 - H89
  1244  1247   1 ;    O43 - H90
  1244  1248   1 ;    O43 - O44
  1244  1251   1 ;    O43 - C55
  1246  1249   1 ;    H89 - H91
  1247  1249   1 ;    H90 - H91
  1250  1252   1 ;    O45 - C56
  1250  1256   1 ;    O45 - H92
  1250  1258   1 ;    O45 - H94
  1250  1261   1 ;    O45 - O46
  1250  1262   1 ;    O45 - C60
  1250  1269   1 ;    O45 - O49
  1251  1255   1 ;    C55 - C59
  1251  1257   1 ;    C55 - H93
  1251  1263   1 ;    C55 - H97
  1251  1264   1 ;    C55 - H98
  1251  1265   1 ;    C55 - O47
  1251  1267   1 ;    C55 - O48
  1251  1270   1 ;    C55 - H101
  1252  1254   1 ;    C56 - C58
  1252  1260   1 ;    C56 - H96
  1252  1270   1 ;    C56 - H101
  1252  1272   1 ;    C56 - H102
  1253  1258   1 ;    C57 - H94
  1253  1259   1 ;    C57 - H95
  1253  1261   1 ;    C57 - O46
  1253  1262   1 ;    C57 - C60
  1253  1268   1 ;    C57 - H100
  1253  1271   1 ;    C57 - O50
  1254  1256   1 ;    C58 - H92
  1254  1259   1 ;    C58 - H95
  1254  1266   1 ;    C58 - H99
  1254  1269   1 ;    C58 - O49
  1254  1271   1 ;    C58 - O50
  1255  1256   1 ;    C59 - H92
  1255  1258   1 ;    C59 - H94
  1255  1262   1 ;    C59 - C60
  1255  1268   1 ;    C59 - H100
  1255  1269   1 ;    C59 - O49
  1256  1257   1 ;    H92 - H93
  1256  1260   1 ;    H92 - H96
  1256  1267   1 ;    H92 - O48
  1256  1270   1 ;    H92 - H101
  1257  1259   1 ;    H93 - H95
  1257  1261   1 ;    H93 - O46
  1257  1268   1 ;    H93 - H100
  1257  1269   1 ;    H93 - O49
  1257  1271   1 ;    H93 - O50
  1258  1260   1 ;    H94 - H96
  1258  1263   1 ;    H94 - H97
  1258  1264   1 ;    H94 - H98
  1258  1265   1 ;    H94 - O47
  1259  1267   1 ;    H95 - O48
  1259  1272   1 ;    H95 - H102
  1260  1261   1 ;    H96 - O46
  1260  1262   1 ;    H96 - C60
  1260  1269   1 ;    H96 - O49
  1261  1263   1 ;    O46 - H97
  1261  1264   1 ;    O46 - H98
  1261  1265   1 ;    O46 - O47
  1261  1267   1 ;    O46 - O48
  1261  1272   1 ;    O46 - H102
  1263  1266   1 ;    H97 - H99
  1264  1266   1 ;    H98 - H99
  1267  1269   1 ;    O48 - O49
  1267  1271   1 ;    O48 - O50
  1273  1278   1 ;     H1 - C5
  1273  1281   1 ;     H1 - H4
  1273  1283   1 ;     H1 - H6
  1273  1284   1 ;     H1 - O1
  1273  1288   1 ;     H1 - O3
  1273  1289   1 ;     H1 - C6
  1274  1275   1 ;     C1 - C2
  1274  1282   1 ;     C1 - H5
  1274  1285   1 ;     C1 - H7
  1274  1286   1 ;     C1 - O2
  1274  1290   1 ;     C1 - H9
  1274  1291   1 ;     C1 - H10
  1274  1292   1 ;     C1 - O4
  1275  1281   1 ;     C2 - H4
  1275  1283   1 ;     C2 - H6
  1275  1284   1 ;     C2 - O1
  1275  1287   1 ;     C2 - H8
  1275  1289   1 ;     C2 - C6
  1275  1297   1 ;     C2 - C9
  1275  1298   1 ;     C2 - C10
  1275  1304   1 ;     C2 - H16
  1276  1278   1 ;     C3 - C5
  1276  1279   1 ;     C3 - H2
  1276  1281   1 ;     C3 - H4
  1276  1284   1 ;     C3 - O1
  1276  1293   1 ;     C3 - H11
  1276  1294   1 ;     C3 - O5
  1277  1279   1 ;     C4 - H2
  1277  1283   1 ;     C4 - H6
  1277  1287   1 ;     C4 - H8
  1277  1288   1 ;     C4 - O3
  1277  1289   1 ;     C4 - C6
  1277  1294   1 ;     C4 - O5
  1278  1280   1 ;     C5 - H3
  1278  1285   1 ;     C5 - H7
  1278  1295   1 ;     C5 - C7
  1279  1282   1 ;     H2 - H5
  1279  1286   1 ;     H2 - O2
  1279  1295   1 ;     H2 - C7
  1280  1281   1 ;     H3 - H4
  1280  1283   1 ;     H3 - H6
  1280  1284   1 ;     H3 - O1
  1280  1288   1 ;     H3 - O3
  1280  1289   1 ;     H3 - C6
  1281  1282   1 ;     H4 - H5
  1281  1285   1 ;     H4 - H7
  1281  1286   1 ;     H4 - O2
  1282  1284   1 ;     H5 - O1
  1282  1287   1 ;     H5 - H8
  1282  1288   1 ;     H5 - O3
  1282  1294   1 ;     H5 - O5
  1283  1290   1 ;     H6 - H9
  1283  1291   1 ;     H6 - H10
  1283  1292   1 ;     H6 - O4
  1284  1286   1 ;     O1 - O2
  1286  1288   1 ;     O2 - O3
  1286  1294   1 ;     O2 - O5
  1288  1290   1 ;     O3 - H9
  1288  1291   1 ;     O3 - H10
  1288  1292   1 ;     O3 - O4
  1288  1295   1 ;     O3 - C7
  1290  1293   1 ;     H9 - H11
  1291  1293   1 ;    H10 - H11
  1294  1296   1 ;     O5 - C8
  1294  1300   1 ;     O5 - H12
  1294  1302   1 ;     O5 - H14
  1294  1305   1 ;     O5 - O6
  1294  1306   1 ;     O5 - C12
  1294  1313   1 ;     O5 - O9
  1295  1299   1 ;     C7 - C11
  1295  1301   1 ;     C7 - H13
  1295  1307   1 ;     C7 - H17
  1295  1308   1 ;     C7 - H18
  1295  1309   1 ;     C7 - O7
  1295  1311   1 ;     C7 - O8
  1295  1314   1 ;     C7 - H21
  1296  1298   1 ;     C8 - C10
  1296  1304   1 ;     C8 - H16
  1296  1314   1 ;     C8 - H21
  1296  1316   1 ;     C8 - C13
  1297  1302   1 ;     C9 - H14
  1297  1303   1 ;     C9 - H15
  1297  1305   1 ;     C9 - O6
  1297  1306   1 ;     C9 - C12
  1297  1312   1 ;     C9 - H20
  1297  1315   1 ;     C9 - O10
  1298  1300   1 ;    C10 - H12
  1298  1303   1 ;    C10 - H15
  1298  1310   1 ;    C10 - H19
  1298  1313   1 ;    C10 - O9
  1298  1315   1 ;    C10 - O10
  1299  1300   1 ;    C11 - H12
  1299  1302   1 ;    C11 - H14
  1299  1306   1 ;    C11 - C12
  1299  1312   1 ;    C11 - H20
  1299  1313   1 ;    C11 - O9
  1299  1318   1 ;    C11 - C15
  1299  1319   1 ;    C11 - C16
  1299  1322   1 ;    C11 - H23
  1300  1301   1 ;    H12 - H13
  1300  1304   1 ;    H12 - H16
  1300  1311   1 ;    H12 - O8
  1300  1314   1 ;    H12 - H21
  1301  1303   1 ;    H13 - H15
  1301  1305   1 ;    H13 - O6
  1301  1312   1 ;    H13 - H20
  1301  1313   1 ;    H13 - O9
  1301  1315   1 ;    H13 - O10
  1302  1304   1 ;    H14 - H16
  1302  1307   1 ;    H14 - H17
  1302  1308   1 ;    H14 - H18
  1302  1309   1 ;    H14 - O7
  1303  1311   1 ;    H15 - O8
  1303  1316   1 ;    H15 - C13
  1304  1305   1 ;    H16 - O6
  1304  1306   1 ;    H16 - C12
  1304  1313   1 ;    H16 - O9
  1305  1307   1 ;     O6 - H17
  1305  1308   1 ;     O6 - H18
  1305  1309   1 ;     O6 - O7
  1305  1311   1 ;     O6 - O8
  1305  1316   1 ;     O6 - C13
  1307  1310   1 ;    H17 - H19
  1308  1310   1 ;    H18 - H19
  1311  1313   1 ;     O8 - O9
  1311  1315   1 ;     O8 - O10
  1315  1320   1 ;    O10 - C17
  1315  1323   1 ;    O10 - H24
  1315  1325   1 ;    O10 - H26
  1315  1326   1 ;    O10 - O11
  1315  1330   1 ;    O10 - O13
  1315  1331   1 ;    O10 - C18
  1316  1317   1 ;    C13 - C14
  1316  1324   1 ;    C13 - H25
  1316  1327   1 ;    C13 - H27
  1316  1328   1 ;    C13 - O12
  1316  1332   1 ;    C13 - H29
  1316  1333   1 ;    C13 - H30
  1316  1334   1 ;    C13 - O14
  1317  1323   1 ;    C14 - H24
  1317  1325   1 ;    C14 - H26
  1317  1326   1 ;    C14 - O11
  1317  1329   1 ;    C14 - H28
  1317  1331   1 ;    C14 - C18
  1317  1339   1 ;    C14 - C21
  1317  1340   1 ;    C14 - C22
  1317  1346   1 ;    C14 - H36
  1318  1320   1 ;    C15 - C17
  1318  1321   1 ;    C15 - H22
  1318  1323   1 ;    C15 - H24
  1318  1326   1 ;    C15 - O11
  1318  1335   1 ;    C15 - H31
  1318  1336   1 ;    C15 - O15
  1319  1321   1 ;    C16 - H22
  1319  1325   1 ;    C16 - H26
  1319  1329   1 ;    C16 - H28
  1319  1330   1 ;    C16 - O13
  1319  1331   1 ;    C16 - C18
  1319  1336   1 ;    C16 - O15
  1320  1322   1 ;    C17 - H23
  1320  1327   1 ;    C17 - H27
  1320  1337   1 ;    C17 - C19
  1321  1324   1 ;    H22 - H25
  1321  1328   1 ;    H22 - O12
  1321  1337   1 ;    H22 - C19
  1322  1323   1 ;    H23 - H24
  1322  1325   1 ;    H23 - H26
  1322  1326   1 ;    H23 - O11
  1322  1330   1 ;    H23 - O13
  1322  1331   1 ;    H23 - C18
  1323  1324   1 ;    H24 - H25
  1323  1327   1 ;    H24 - H27
  1323  1328   1 ;    H24 - O12
  1324  1326   1 ;    H25 - O11
  1324  1329   1 ;    H25 - H28
  1324  1330   1 ;    H25 - O13
  1324  1336   1 ;    H25 - O15
  1325  1332   1 ;    H26 - H29
  1325  1333   1 ;    H26 - H30
  1325  1334   1 ;    H26 - O14
  1326  1328   1 ;    O11 - O12
  1328  1330   1 ;    O12 - O13
  1328  1336   1 ;    O12 - O15
  1330  1332   1 ;    O13 - H29
  1330  1333   1 ;    O13 - H30
  1330  1334   1 ;    O13 - O14
  1330  1337   1 ;    O13 - C19
  1332  1335   1 ;    H29 - H31
  1333  1335   1 ;    H30 - H31
  1336  1338   1 ;    O15 - C20
  1336  1342   1 ;    O15 - H32
  1336  1344   1 ;    O15 - H34
  1336  1347   1 ;    O15 - O16
  1336  1348   1 ;    O15 - C24
  1336  1355   1 ;    O15 - O19
  1337  1341   1 ;    C19 - C23
  1337  1343   1 ;    C19 - H33
  1337  1349   1 ;    C19 - H37
  1337  1350   1 ;    C19 - H38
  1337  1351   1 ;    C19 - O17
  1337  1353   1 ;    C19 - O18
  1337  1356   1 ;    C19 - H41
  1338  1340   1 ;    C20 - C22
  1338  1346   1 ;    C20 - H36
  1338  1356   1 ;    C20 - H41
  1338  1358   1 ;    C20 - C25
  1339  1344   1 ;    C21 - H34
  1339  1345   1 ;    C21 - H35
  1339  1347   1 ;    C21 - O16
  1339  1348   1 ;    C21 - C24
  1339  1354   1 ;    C21 - H40
  1339  1357   1 ;    C21 - O20
  1340  1342   1 ;    C22 - H32
  1340  1345   1 ;    C22 - H35
  1340  1352   1 ;    C22 - H39
  1340  1355   1 ;    C22 - O19
  1340  1357   1 ;    C22 - O20
  1341  1342   1 ;    C23 - H32
  1341  1344   1 ;    C23 - H34
  1341  1348   1 ;    C23 - C24
  1341  1354   1 ;    C23 - H40
  1341  1355   1 ;    C23 - O19
  1341  1360   1 ;    C23 - C27
  1341  1361   1 ;    C23 - C28
  1341  1364   1 ;    C23 - H43
  1342  1343   1 ;    H32 - H33
  1342  1346   1 ;    H32 - H36
  1342  1353   1 ;    H32 - O18
  1342  1356   1 ;    H32 - H41
  1343  1345   1 ;    H33 - H35
  1343  1347   1 ;    H33 - O16
  1343  1354   1 ;    H33 - H40
  1343  1355   1 ;    H33 - O19
  1343  1357   1 ;    H33 - O20
  1344  1346   1 ;    H34 - H36
  1344  1349   1 ;    H34 - H37
  1344  1350   1 ;    H34 - H38
  1344  1351   1 ;    H34 - O17
  1345  1353   1 ;    H35 - O18
  1345  1358   1 ;    H35 - C25
  1346  1347   1 ;    H36 - O16
  1346  1348   1 ;    H36 - C24
  1346  1355   1 ;    H36 - O19
  1347  1349   1 ;    O16 - H37
  1347  1350   1 ;    O16 - H38
  1347  1351   1 ;    O16 - O17
  1347  1353   1 ;    O16 - O18
  1347  1358   1 ;    O16 - C25
  1349  1352   1 ;    H37 - H39
  1350  1352   1 ;    H38 - H39
  1353  1355   1 ;    O18 - O19
  1353  1357   1 ;    O18 - O20
  1357  1362   1 ;    O20 - C29
  1357  1365   1 ;    O20 - H44
  1357  1367   1 ;    O20 - H46
  1357  1368   1 ;    O20 - O21
  1357  1372   1 ;    O20 - O23
  1357  1373   1 ;    O20 - C30
  1358  1359   1 ;    C25 - C26
  1358  1366   1 ;    C25 - H45
  1358  1369   1 ;    C25 - H47
  1358  1370   1 ;    C25 - O22
  1358  1374   1 ;    C25 - H49
  1358  1375   1 ;    C25 - H50
  1358  1376   1 ;    C25 - O24
  1359  1365   1 ;    C26 - H44
  1359  1367   1 ;    C26 - H46
  1359  1368   1 ;    C26 - O21
  1359  1371   1 ;    C26 - H48
  1359  1373   1 ;    C26 - C30
  1359  1381   1 ;    C26 - C33
  1359  1382   1 ;    C26 - C34
  1359  1388   1 ;    C26 - H56
  1360  1362   1 ;    C27 - C29
  1360  1363   1 ;    C27 - H42
  1360  1365   1 ;    C27 - H44
  1360  1368   1 ;    C27 - O21
  1360  1377   1 ;    C27 - H51
  1360  1378   1 ;    C27 - O25
  1361  1363   1 ;    C28 - H42
  1361  1367   1 ;    C28 - H46
  1361  1371   1 ;    C28 - H48
  1361  1372   1 ;    C28 - O23
  1361  1373   1 ;    C28 - C30
  1361  1378   1 ;    C28 - O25
  1362  1364   1 ;    C29 - H43
  1362  1369   1 ;    C29 - H47
  1362  1379   1 ;    C29 - C31
  1363  1366   1 ;    H42 - H45
  1363  1370   1 ;    H42 - O22
  1363  1379   1 ;    H42 - C31
  1364  1365   1 ;    H43 - H44
  1364  1367   1 ;    H43 - H46
  1364  1368   1 ;    H43 - O21
  1364  1372   1 ;    H43 - O23
  1364  1373   1 ;    H43 - C30
  1365  1366   1 ;    H44 - H45
  1365  1369   1 ;    H44 - H47
  1365  1370   1 ;    H44 - O22
  1366  1368   1 ;    H45 - O21
  1366  1371   1 ;    H45 - H48
  1366  1372   1 ;    H45 - O23
  1366  1378   1 ;    H45 - O25
  1367  1374   1 ;    H46 - H49
  1367  1375   1 ;    H46 - H50
  1367  1376   1 ;    H46 - O24
  1368  1370   1 ;    O21 - O22
  1370  1372   1 ;    O22 - O23
  1370  1378   1 ;    O22 - O25
  1372  1374   1 ;    O23 - H49
  1372  1375   1 ;    O23 - H50
  1372  1376   1 ;    O23 - O24
  1372  1379   1 ;    O23 - C31
  1374  1377   1 ;    H49 - H51
  1375  1377   1 ;    H50 - H51
  1378  1380   1 ;    O25 - C32
  1378  1384   1 ;    O25 - H52
  1378  1386   1 ;    O25 - H54
  1378  1389   1 ;    O25 - O26
  1378  1390   1 ;    O25 - C36
  1378  1397   1 ;    O25 - O29
  1379  1383   1 ;    C31 - C35
  1379  1385   1 ;    C31 - H53
  1379  1391   1 ;    C31 - H57
  1379  1392   1 ;    C31 - H58
  1379  1393   1 ;    C31 - O27
  1379  1395   1 ;    C31 - O28
  1379  1398   1 ;    C31 - H61
  1380  1382   1 ;    C32 - C34
  1380  1388   1 ;    C32 - H56
  1380  1398   1 ;    C32 - H61
  1380  1400   1 ;    C32 - C37
  1381  1386   1 ;    C33 - H54
  1381  1387   1 ;    C33 - H55
  1381  1389   1 ;    C33 - O26
  1381  1390   1 ;    C33 - C36
  1381  1396   1 ;    C33 - H60
  1381  1399   1 ;    C33 - O30
  1382  1384   1 ;    C34 - H52
  1382  1387   1 ;    C34 - H55
  1382  1394   1 ;    C34 - H59
  1382  1397   1 ;    C34 - O29
  1382  1399   1 ;    C34 - O30
  1383  1384   1 ;    C35 - H52
  1383  1386   1 ;    C35 - H54
  1383  1390   1 ;    C35 - C36
  1383  1396   1 ;    C35 - H60
  1383  1397   1 ;    C35 - O29
  1383  1402   1 ;    C35 - C39
  1383  1403   1 ;    C35 - C40
  1383  1406   1 ;    C35 - H63
  1384  1385   1 ;    H52 - H53
  1384  1388   1 ;    H52 - H56
  1384  1395   1 ;    H52 - O28
  1384  1398   1 ;    H52 - H61
  1385  1387   1 ;    H53 - H55
  1385  1389   1 ;    H53 - O26
  1385  1396   1 ;    H53 - H60
  1385  1397   1 ;    H53 - O29
  1385  1399   1 ;    H53 - O30
  1386  1388   1 ;    H54 - H56
  1386  1391   1 ;    H54 - H57
  1386  1392   1 ;    H54 - H58
  1386  1393   1 ;    H54 - O27
  1387  1395   1 ;    H55 - O28
  1387  1400   1 ;    H55 - C37
  1388  1389   1 ;    H56 - O26
  1388  1390   1 ;    H56 - C36
  1388  1397   1 ;    H56 - O29
  1389  1391   1 ;    O26 - H57
  1389  1392   1 ;    O26 - H58
  1389  1393   1 ;    O26 - O27
  1389  1395   1 ;    O26 - O28
  1389  1400   1 ;    O26 - C37
  1391  1394   1 ;    H57 - H59
  1392  1394   1 ;    H58 - H59
  1395  1397   1 ;    O28 - O29
  1395  1399   1 ;    O28 - O30
  1399  1404   1 ;    O30 - C41
  1399  1407   1 ;    O30 - H64
  1399  1409   1 ;    O30 - H66
  1399  1410   1 ;    O30 - O31
  1399  1414   1 ;    O30 - O33
  1399  1415   1 ;    O30 - C42
  1400  1401   1 ;    C37 - C38
  1400  1408   1 ;    C37 - H65
  1400  1411   1 ;    C37 - H67
  1400  1412   1 ;    C37 - O32
  1400  1416   1 ;    C37 - H69
  1400  1417   1 ;    C37 - H70
  1400  1418   1 ;    C37 - O34
  1401  1407   1 ;    C38 - H64
  1401  1409   1 ;    C38 - H66
  1401  1410   1 ;    C38 - O31
  1401  1413   1 ;    C38 - H68
  1401  1415   1 ;    C38 - C42
  1401  1423   1 ;    C38 - C45
  1401  1424   1 ;    C38 - C46
  1401  1430   1 ;    C38 - H76
  1402  1404   1 ;    C39 - C41
  1402  1405   1 ;    C39 - H62
  1402  1407   1 ;    C39 - H64
  1402  1410   1 ;    C39 - O31
  1402  1419   1 ;    C39 - H71
  1402  1420   1 ;    C39 - O35
  1403  1405   1 ;    C40 - H62
  1403  1409   1 ;    C40 - H66
  1403  1413   1 ;    C40 - H68
  1403  1414   1 ;    C40 - O33
  1403  1415   1 ;    C40 - C42
  1403  1420   1 ;    C40 - O35
  1404  1406   1 ;    C41 - H63
  1404  1411   1 ;    C41 - H67
  1404  1421   1 ;    C41 - C43
  1405  1408   1 ;    H62 - H65
  1405  1412   1 ;    H62 - O32
  1405  1421   1 ;    H62 - C43
  1406  1407   1 ;    H63 - H64
  1406  1409   1 ;    H63 - H66
  1406  1410   1 ;    H63 - O31
  1406  1414   1 ;    H63 - O33
  1406  1415   1 ;    H63 - C42
  1407  1408   1 ;    H64 - H65
  1407  1411   1 ;    H64 - H67
  1407  1412   1 ;    H64 - O32
  1408  1410   1 ;    H65 - O31
  1408  1413   1 ;    H65 - H68
  1408  1414   1 ;    H65 - O33
  1408  1420   1 ;    H65 - O35
  1409  1416   1 ;    H66 - H69
  1409  1417   1 ;    H66 - H70
  1409  1418   1 ;    H66 - O34
  1410  1412   1 ;    O31 - O32
  1412  1414   1 ;    O32 - O33
  1412  1420   1 ;    O32 - O35
  1414  1416   1 ;    O33 - H69
  1414  1417   1 ;    O33 - H70
  1414  1418   1 ;    O33 - O34
  1414  1421   1 ;    O33 - C43
  1416  1419   1 ;    H69 - H71
  1417  1419   1 ;    H70 - H71
  1420  1422   1 ;    O35 - C44
  1420  1426   1 ;    O35 - H72
  1420  1428   1 ;    O35 - H74
  1420  1431   1 ;    O35 - O36
  1420  1432   1 ;    O35 - C48
  1420  1439   1 ;    O35 - O39
  1421  1425   1 ;    C43 - C47
  1421  1427   1 ;    C43 - H73
  1421  1433   1 ;    C43 - H77
  1421  1434   1 ;    C43 - H78
  1421  1435   1 ;    C43 - O37
  1421  1437   1 ;    C43 - O38
  1421  1440   1 ;    C43 - H81
  1422  1424   1 ;    C44 - C46
  1422  1430   1 ;    C44 - H76
  1422  1440   1 ;    C44 - H81
  1422  1442   1 ;    C44 - C49
  1423  1428   1 ;    C45 - H74
  1423  1429   1 ;    C45 - H75
  1423  1431   1 ;    C45 - O36
  1423  1432   1 ;    C45 - C48
  1423  1438   1 ;    C45 - H80
  1423  1441   1 ;    C45 - O40
  1424  1426   1 ;    C46 - H72
  1424  1429   1 ;    C46 - H75
  1424  1436   1 ;    C46 - H79
  1424  1439   1 ;    C46 - O39
  1424  1441   1 ;    C46 - O40
  1425  1426   1 ;    C47 - H72
  1425  1428   1 ;    C47 - H74
  1425  1432   1 ;    C47 - C48
  1425  1438   1 ;    C47 - H80
  1425  1439   1 ;    C47 - O39
  1425  1444   1 ;    C47 - C51
  1425  1445   1 ;    C47 - C52
  1425  1448   1 ;    C47 - H83
  1426  1427   1 ;    H72 - H73
  1426  1430   1 ;    H72 - H76
  1426  1437   1 ;    H72 - O38
  1426  1440   1 ;    H72 - H81
  1427  1429   1 ;    H73 - H75
  1427  1431   1 ;    H73 - O36
  1427  1438   1 ;    H73 - H80
  1427  1439   1 ;    H73 - O39
  1427  1441   1 ;    H73 - O40
  1428  1430   1 ;    H74 - H76
  1428  1433   1 ;    H74 - H77
  1428  1434   1 ;    H74 - H78
  1428  1435   1 ;    H74 - O37
  1429  1437   1 ;    H75 - O38
  1429  1442   1 ;    H75 - C49
  1430  1431   1 ;    H76 - O36
  1430  1432   1 ;    H76 - C48
  1430  1439   1 ;    H76 - O39
  1431  1433   1 ;    O36 - H77
  1431  1434   1 ;    O36 - H78
  1431  1435   1 ;    O36 - O37
  1431  1437   1 ;    O36 - O38
  1431  1442   1 ;    O36 - C49
  1433  1436   1 ;    H77 - H79
  1434  1436   1 ;    H78 - H79
  1437  1439   1 ;    O38 - O39
  1437  1441   1 ;    O38 - O40
  1441  1446   1 ;    O40 - C53
  1441  1449   1 ;    O40 - H84
  1441  1451   1 ;    O40 - H86
  1441  1452   1 ;    O40 - O41
  1441  1456   1 ;    O40 - O43
  1441  1457   1 ;    O40 - C54
  1442  1443   1 ;    C49 - C50
  1442  1450   1 ;    C49 - H85
  1442  1453   1 ;    C49 - H87
  1442  1454   1 ;    C49 - O42
  1442  1458   1 ;    C49 - H89
  1442  1459   1 ;    C49 - H90
  1442  1460   1 ;    C49 - O44
  1443  1449   1 ;    C50 - H84
  1443  1451   1 ;    C50 - H86
  1443  1452   1 ;    C50 - O41
  1443  1455   1 ;    C50 - H88
  1443  1457   1 ;    C50 - C54
  1443  1465   1 ;    C50 - C57
  1443  1466   1 ;    C50 - C58
  1443  1472   1 ;    C50 - H96
  1444  1446   1 ;    C51 - C53
  1444  1447   1 ;    C51 - H82
  1444  1449   1 ;    C51 - H84
  1444  1452   1 ;    C51 - O41
  1444  1461   1 ;    C51 - H91
  1444  1462   1 ;    C51 - O45
  1445  1447   1 ;    C52 - H82
  1445  1451   1 ;    C52 - H86
  1445  1455   1 ;    C52 - H88
  1445  1456   1 ;    C52 - O43
  1445  1457   1 ;    C52 - C54
  1445  1462   1 ;    C52 - O45
  1446  1448   1 ;    C53 - H83
  1446  1453   1 ;    C53 - H87
  1446  1463   1 ;    C53 - C55
  1447  1450   1 ;    H82 - H85
  1447  1454   1 ;    H82 - O42
  1447  1463   1 ;    H82 - C55
  1448  1449   1 ;    H83 - H84
  1448  1451   1 ;    H83 - H86
  1448  1452   1 ;    H83 - O41
  1448  1456   1 ;    H83 - O43
  1448  1457   1 ;    H83 - C54
  1449  1450   1 ;    H84 - H85
  1449  1453   1 ;    H84 - H87
  1449  1454   1 ;    H84 - O42
  1450  1452   1 ;    H85 - O41
  1450  1455   1 ;    H85 - H88
  1450  1456   1 ;    H85 - O43
  1450  1462   1 ;    H85 - O45
  1451  1458   1 ;    H86 - H89
  1451  1459   1 ;    H86 - H90
  1451  1460   1 ;    H86 - O44
  1452  1454   1 ;    O41 - O42
  1454  1456   1 ;    O42 - O43
  1454  1462   1 ;    O42 - O45
  1456  1458   1 ;    O43 - H89
  1456  1459   1 ;    O43 - H90
  1456  1460   1 ;    O43 - O44
  1456  1463   1 ;    O43 - C55
  1458  1461   1 ;    H89 - H91
  1459  1461   1 ;    H90 - H91
  1462  1464   1 ;    O45 - C56
  1462  1468   1 ;    O45 - H92
  1462  1470   1 ;    O45 - H94
  1462  1473   1 ;    O45 - O46
  1462  1474   1 ;    O45 - C60
  1462  1481   1 ;    O45 - O49
  1463  1467   1 ;    C55 - C59
  1463  1469   1 ;    C55 - H93
  1463  1475   1 ;    C55 - H97
  1463  1476   1 ;    C55 - H98
  1463  1477   1 ;    C55 - O47
  1463  1479   1 ;    C55 - O48
  1463  1482   1 ;    C55 - H101
  1464  1466   1 ;    C56 - C58
  1464  1472   1 ;    C56 - H96
  1464  1482   1 ;    C56 - H101
  1464  1484   1 ;    C56 - H102
  1465  1470   1 ;    C57 - H94
  1465  1471   1 ;    C57 - H95
  1465  1473   1 ;    C57 - O46
  1465  1474   1 ;    C57 - C60
  1465  1480   1 ;    C57 - H100
  1465  1483   1 ;    C57 - O50
  1466  1468   1 ;    C58 - H92
  1466  1471   1 ;    C58 - H95
  1466  1478   1 ;    C58 - H99
  1466  1481   1 ;    C58 - O49
  1466  1483   1 ;    C58 - O50
  1467  1468   1 ;    C59 - H92
  1467  1470   1 ;    C59 - H94
  1467  1474   1 ;    C59 - C60
  1467  1480   1 ;    C59 - H100
  1467  1481   1 ;    C59 - O49
  1468  1469   1 ;    H92 - H93
  1468  1472   1 ;    H92 - H96
  1468  1479   1 ;    H92 - O48
  1468  1482   1 ;    H92 - H101
  1469  1471   1 ;    H93 - H95
  1469  1473   1 ;    H93 - O46
  1469  1480   1 ;    H93 - H100
  1469  1481   1 ;    H93 - O49
  1469  1483   1 ;    H93 - O50
  1470  1472   1 ;    H94 - H96
  1470  1475   1 ;    H94 - H97
  1470  1476   1 ;    H94 - H98
  1470  1477   1 ;    H94 - O47
  1471  1479   1 ;    H95 - O48
  1471  1484   1 ;    H95 - H102
  1472  1473   1 ;    H96 - O46
  1472  1474   1 ;    H96 - C60
  1472  1481   1 ;    H96 - O49
  1473  1475   1 ;    O46 - H97
  1473  1476   1 ;    O46 - H98
  1473  1477   1 ;    O46 - O47
  1473  1479   1 ;    O46 - O48
  1473  1484   1 ;    O46 - H102
  1475  1478   1 ;    H97 - H99
  1476  1478   1 ;    H98 - H99
  1479  1481   1 ;    O48 - O49
  1479  1483   1 ;    O48 - O50
  1485  1490   1 ;     H1 - C5
  1485  1493   1 ;     H1 - H4
  1485  1495   1 ;     H1 - H6
  1485  1496   1 ;     H1 - O1
  1485  1500   1 ;     H1 - O3
  1485  1501   1 ;     H1 - C6
  1486  1487   1 ;     C1 - C2
  1486  1494   1 ;     C1 - H5
  1486  1497   1 ;     C1 - H7
  1486  1498   1 ;     C1 - O2
  1486  1502   1 ;     C1 - H9
  1486  1503   1 ;     C1 - H10
  1486  1504   1 ;     C1 - O4
  1487  1493   1 ;     C2 - H4
  1487  1495   1 ;     C2 - H6
  1487  1496   1 ;     C2 - O1
  1487  1499   1 ;     C2 - H8
  1487  1501   1 ;     C2 - C6
  1487  1509   1 ;     C2 - C9
  1487  1510   1 ;     C2 - C10
  1487  1516   1 ;     C2 - H16
  1488  1490   1 ;     C3 - C5
  1488  1491   1 ;     C3 - H2
  1488  1493   1 ;     C3 - H4
  1488  1496   1 ;     C3 - O1
  1488  1505   1 ;     C3 - H11
  1488  1506   1 ;     C3 - O5
  1489  1491   1 ;     C4 - H2
  1489  1495   1 ;     C4 - H6
  1489  1499   1 ;     C4 - H8
  1489  1500   1 ;     C4 - O3
  1489  1501   1 ;     C4 - C6
  1489  1506   1 ;     C4 - O5
  1490  1492   1 ;     C5 - H3
  1490  1497   1 ;     C5 - H7
  1490  1507   1 ;     C5 - C7
  1491  1494   1 ;     H2 - H5
  1491  1498   1 ;     H2 - O2
  1491  1507   1 ;     H2 - C7
  1492  1493   1 ;     H3 - H4
  1492  1495   1 ;     H3 - H6
  1492  1496   1 ;     H3 - O1
  1492  1500   1 ;     H3 - O3
  1492  1501   1 ;     H3 - C6
  1493  1494   1 ;     H4 - H5
  1493  1497   1 ;     H4 - H7
  1493  1498   1 ;     H4 - O2
  1494  1496   1 ;     H5 - O1
  1494  1499   1 ;     H5 - H8
  1494  1500   1 ;     H5 - O3
  1494  1506   1 ;     H5 - O5
  1495  1502   1 ;     H6 - H9
  1495  1503   1 ;     H6 - H10
  1495  1504   1 ;     H6 - O4
  1496  1498   1 ;     O1 - O2
  1498  1500   1 ;     O2 - O3
  1498  1506   1 ;     O2 - O5
  1500  1502   1 ;     O3 - H9
  1500  1503   1 ;     O3 - H10
  1500  1504   1 ;     O3 - O4
  1500  1507   1 ;     O3 - C7
  1502  1505   1 ;     H9 - H11
  1503  1505   1 ;    H10 - H11
  1506  1508   1 ;     O5 - C8
  1506  1512   1 ;     O5 - H12
  1506  1514   1 ;     O5 - H14
  1506  1517   1 ;     O5 - O6
  1506  1518   1 ;     O5 - C12
  1506  1525   1 ;     O5 - O9
  1507  1511   1 ;     C7 - C11
  1507  1513   1 ;     C7 - H13
  1507  1519   1 ;     C7 - H17
  1507  1520   1 ;     C7 - H18
  1507  1521   1 ;     C7 - O7
  1507  1523   1 ;     C7 - O8
  1507  1526   1 ;     C7 - H21
  1508  1510   1 ;     C8 - C10
  1508  1516   1 ;     C8 - H16
  1508  1526   1 ;     C8 - H21
  1508  1528   1 ;     C8 - C13
  1509  1514   1 ;     C9 - H14
  1509  1515   1 ;     C9 - H15
  1509  1517   1 ;     C9 - O6
  1509  1518   1 ;     C9 - C12
  1509  1524   1 ;     C9 - H20
  1509  1527   1 ;     C9 - O10
  1510  1512   1 ;    C10 - H12
  1510  1515   1 ;    C10 - H15
  1510  1522   1 ;    C10 - H19
  1510  1525   1 ;    C10 - O9
  1510  1527   1 ;    C10 - O10
  1511  1512   1 ;    C11 - H12
  1511  1514   1 ;    C11 - H14
  1511  1518   1 ;    C11 - C12
  1511  1524   1 ;    C11 - H20
  1511  1525   1 ;    C11 - O9
  1511  1530   1 ;    C11 - C15
  1511  1531   1 ;    C11 - C16
  1511  1534   1 ;    C11 - H23
  1512  1513   1 ;    H12 - H13
  1512  1516   1 ;    H12 - H16
  1512  1523   1 ;    H12 - O8
  1512  1526   1 ;    H12 - H21
  1513  1515   1 ;    H13 - H15
  1513  1517   1 ;    H13 - O6
  1513  1524   1 ;    H13 - H20
  1513  1525   1 ;    H13 - O9
  1513  1527   1 ;    H13 - O10
  1514  1516   1 ;    H14 - H16
  1514  1519   1 ;    H14 - H17
  1514  1520   1 ;    H14 - H18
  1514  1521   1 ;    H14 - O7
  1515  1523   1 ;    H15 - O8
  1515  1528   1 ;    H15 - C13
  1516  1517   1 ;    H16 - O6
  1516  1518   1 ;    H16 - C12
  1516  1525   1 ;    H16 - O9
  1517  1519   1 ;     O6 - H17
  1517  1520   1 ;     O6 - H18
  1517  1521   1 ;     O6 - O7
  1517  1523   1 ;     O6 - O8
  1517  1528   1 ;     O6 - C13
  1519  1522   1 ;    H17 - H19
  1520  1522   1 ;    H18 - H19
  1523  1525   1 ;     O8 - O9
  1523  1527   1 ;     O8 - O10
  1527  1532   1 ;    O10 - C17
  1527  1535   1 ;    O10 - H24
  1527  1537   1 ;    O10 - H26
  1527  1538   1 ;    O10 - O11
  1527  1542   1 ;    O10 - O13
  1527  1543   1 ;    O10 - C18
  1528  1529   1 ;    C13 - C14
  1528  1536   1 ;    C13 - H25
  1528  1539   1 ;    C13 - H27
  1528  1540   1 ;    C13 - O12
  1528  1544   1 ;    C13 - H29
  1528  1545   1 ;    C13 - H30
  1528  1546   1 ;    C13 - O14
  1529  1535   1 ;    C14 - H24
  1529  1537   1 ;    C14 - H26
  1529  1538   1 ;    C14 - O11
  1529  1541   1 ;    C14 - H28
  1529  1543   1 ;    C14 - C18
  1529  1551   1 ;    C14 - C21
  1529  1552   1 ;    C14 - C22
  1529  1558   1 ;    C14 - H36
  1530  1532   1 ;    C15 - C17
  1530  1533   1 ;    C15 - H22
  1530  1535   1 ;    C15 - H24
  1530  1538   1 ;    C15 - O11
  1530  1547   1 ;    C15 - H31
  1530  1548   1 ;    C15 - O15
  1531  1533   1 ;    C16 - H22
  1531  1537   1 ;    C16 - H26
  1531  1541   1 ;    C16 - H28
  1531  1542   1 ;    C16 - O13
  1531  1543   1 ;    C16 - C18
  1531  1548   1 ;    C16 - O15
  1532  1534   1 ;    C17 - H23
  1532  1539   1 ;    C17 - H27
  1532  1549   1 ;    C17 - C19
  1533  1536   1 ;    H22 - H25
  1533  1540   1 ;    H22 - O12
  1533  1549   1 ;    H22 - C19
  1534  1535   1 ;    H23 - H24
  1534  1537   1 ;    H23 - H26
  1534  1538   1 ;    H23 - O11
  1534  1542   1 ;    H23 - O13
  1534  1543   1 ;    H23 - C18
  1535  1536   1 ;    H24 - H25
  1535  1539   1 ;    H24 - H27
  1535  1540   1 ;    H24 - O12
  1536  1538   1 ;    H25 - O11
  1536  1541   1 ;    H25 - H28
  1536  1542   1 ;    H25 - O13
  1536  1548   1 ;    H25 - O15
  1537  1544   1 ;    H26 - H29
  1537  1545   1 ;    H26 - H30
  1537  1546   1 ;    H26 - O14
  1538  1540   1 ;    O11 - O12
  1540  1542   1 ;    O12 - O13
  1540  1548   1 ;    O12 - O15
  1542  1544   1 ;    O13 - H29
  1542  1545   1 ;    O13 - H30
  1542  1546   1 ;    O13 - O14
  1542  1549   1 ;    O13 - C19
  1544  1547   1 ;    H29 - H31
  1545  1547   1 ;    H30 - H31
  1548  1550   1 ;    O15 - C20
  1548  1554   1 ;    O15 - H32
  1548  1556   1 ;    O15 - H34
  1548  1559   1 ;    O15 - O16
  1548  1560   1 ;    O15 - C24
  1548  1567   1 ;    O15 - O19
  1549  1553   1 ;    C19 - C23
  1549  1555   1 ;    C19 - H33
  1549  1561   1 ;    C19 - H37
  1549  1562   1 ;    C19 - H38
  1549  1563   1 ;    C19 - O17
  1549  1565   1 ;    C19 - O18
  1549  1568   1 ;    C19 - H41
  1550  1552   1 ;    C20 - C22
  1550  1558   1 ;    C20 - H36
  1550  1568   1 ;    C20 - H41
  1550  1570   1 ;    C20 - C25
  1551  1556   1 ;    C21 - H34
  1551  1557   1 ;    C21 - H35
  1551  1559   1 ;    C21 - O16
  1551  1560   1 ;    C21 - C24
  1551  1566   1 ;    C21 - H40
  1551  1569   1 ;    C21 - O20
  1552  1554   1 ;    C22 - H32
  1552  1557   1 ;    C22 - H35
  1552  1564   1 ;    C22 - H39
  1552  1567   1 ;    C22 - O19
  1552  1569   1 ;    C22 - O20
  1553  1554   1 ;    C23 - H32
  1553  1556   1 ;    C23 - H34
  1553  1560   1 ;    C23 - C24
  1553  1566   1 ;    C23 - H40
  1553  1567   1 ;    C23 - O19
  1553  1572   1 ;    C23 - C27
  1553  1573   1 ;    C23 - C28
  1553  1576   1 ;    C23 - H43
  1554  1555   1 ;    H32 - H33
  1554  1558   1 ;    H32 - H36
  1554  1565   1 ;    H32 - O18
  1554  1568   1 ;    H32 - H41
  1555  1557   1 ;    H33 - H35
  1555  1559   1 ;    H33 - O16
  1555  1566   1 ;    H33 - H40
  1555  1567   1 ;    H33 - O19
  1555  1569   1 ;    H33 - O20
  1556  1558   1 ;    H34 - H36
  1556  1561   1 ;    H34 - H37
  1556  1562   1 ;    H34 - H38
  1556  1563   1 ;    H34 - O17
  1557  1565   1 ;    H35 - O18
  1557  1570   1 ;    H35 - C25
  1558  1559   1 ;    H36 - O16
  1558  1560   1 ;    H36 - C24
  1558  1567   1 ;    H36 - O19
  1559  1561   1 ;    O16 - H37
  1559  1562   1 ;    O16 - H38
  1559  1563   1 ;    O16 - O17
  1559  1565   1 ;    O16 - O18
  1559  1570   1 ;    O16 - C25
  1561  1564   1 ;    H37 - H39
  1562  1564   1 ;    H38 - H39
  1565  1567   1 ;    O18 - O19
  1565  1569   1 ;    O18 - O20
  1569  1574   1 ;    O20 - C29
  1569  1577   1 ;    O20 - H44
  1569  1579   1 ;    O20 - H46
  1569  1580   1 ;    O20 - O21
  1569  1584   1 ;    O20 - O23
  1569  1585   1 ;    O20 - C30
  1570  1571   1 ;    C25 - C26
  1570  1578   1 ;    C25 - H45
  1570  1581   1 ;    C25 - H47
  1570  1582   1 ;    C25 - O22
  1570  1586   1 ;    C25 - H49
  1570  1587   1 ;    C25 - H50
  1570  1588   1 ;    C25 - O24
  1571  1577   1 ;    C26 - H44
  1571  1579   1 ;    C26 - H46
  1571  1580   1 ;    C26 - O21
  1571  1583   1 ;    C26 - H48
  1571  1585   1 ;    C26 - C30
  1571  1593   1 ;    C26 - C33
  1571  1594   1 ;    C26 - C34
  1571  1600   1 ;    C26 - H56
  1572  1574   1 ;    C27 - C29
  1572  1575   1 ;    C27 - H42
  1572  1577   1 ;    C27 - H44
  1572  1580   1 ;    C27 - O21
  1572  1589   1 ;    C27 - H51
  1572  1590   1 ;    C27 - O25
  1573  1575   1 ;    C28 - H42
  1573  1579   1 ;    C28 - H46
  1573  1583   1 ;    C28 - H48
  1573  1584   1 ;    C28 - O23
  1573  1585   1 ;    C28 - C30
  1573  1590   1 ;    C28 - O25
  1574  1576   1 ;    C29 - H43
  1574  1581   1 ;    C29 - H47
  1574  1591   1 ;    C29 - C31
  1575  1578   1 ;    H42 - H45
  1575  1582   1 ;    H42 - O22
  1575  1591   1 ;    H42 - C31
  1576  1577   1 ;    H43 - H44
  1576  1579   1 ;    H43 - H46
  1576  1580   1 ;    H43 - O21
  1576  1584   1 ;    H43 - O23
  1576  1585   1 ;    H43 - C30
  1577  1578   1 ;    H44 - H45
  1577  1581   1 ;    H44 - H47
  1577  1582   1 ;    H44 - O22
  1578  1580   1 ;    H45 - O21
  1578  1583   1 ;    H45 - H48
  1578  1584   1 ;    H45 - O23
  1578  1590   1 ;    H45 - O25
  1579  1586   1 ;    H46 - H49
  1579  1587   1 ;    H46 - H50
  1579  1588   1 ;    H46 - O24
  1580  1582   1 ;    O21 - O22
  1582  1584   1 ;    O22 - O23
  1582  1590   1 ;    O22 - O25
  1584  1586   1 ;    O23 - H49
  1584  1587   1 ;    O23 - H50
  1584  1588   1 ;    O23 - O24
  1584  1591   1 ;    O23 - C31
  1586  1589   1 ;    H49 - H51
  1587  1589   1 ;    H50 - H51
  1590  1592   1 ;    O25 - C32
  1590  1596   1 ;    O25 - H52
  1590  1598   1 ;    O25 - H54
  1590  1601   1 ;    O25 - O26
  1590  1602   1 ;    O25 - C36
  1590  1609   1 ;    O25 - O29
  1591  1595   1 ;    C31 - C35
  1591  1597   1 ;    C31 - H53
  1591  1603   1 ;    C31 - H57
  1591  1604   1 ;    C31 - H58
  1591  1605   1 ;    C31 - O27
  1591  1607   1 ;    C31 - O28
  1591  1610   1 ;    C31 - H61
  1592  1594   1 ;    C32 - C34
  1592  1600   1 ;    C32 - H56
  1592  1610   1 ;    C32 - H61
  1592  1612   1 ;    C32 - C37
  1593  1598   1 ;    C33 - H54
  1593  1599   1 ;    C33 - H55
  1593  1601   1 ;    C33 - O26
  1593  1602   1 ;    C33 - C36
  1593  1608   1 ;    C33 - H60
  1593  1611   1 ;    C33 - O30
  1594  1596   1 ;    C34 - H52
  1594  1599   1 ;    C34 - H55
  1594  1606   1 ;    C34 - H59
  1594  1609   1 ;    C34 - O29
  1594  1611   1 ;    C34 - O30
  1595  1596   1 ;    C35 - H52
  1595  1598   1 ;    C35 - H54
  1595  1602   1 ;    C35 - C36
  1595  1608   1 ;    C35 - H60
  1595  1609   1 ;    C35 - O29
  1595  1614   1 ;    C35 - C39
  1595  1615   1 ;    C35 - C40
  1595  1618   1 ;    C35 - H63
  1596  1597   1 ;    H52 - H53
  1596  1600   1 ;    H52 - H56
  1596  1607   1 ;    H52 - O28
  1596  1610   1 ;    H52 - H61
  1597  1599   1 ;    H53 - H55
  1597  1601   1 ;    H53 - O26
  1597  1608   1 ;    H53 - H60
  1597  1609   1 ;    H53 - O29
  1597  1611   1 ;    H53 - O30
  1598  1600   1 ;    H54 - H56
  1598  1603   1 ;    H54 - H57
  1598  1604   1 ;    H54 - H58
  1598  1605   1 ;    H54 - O27
  1599  1607   1 ;    H55 - O28
  1599  1612   1 ;    H55 - C37
  1600  1601   1 ;    H56 - O26
  1600  1602   1 ;    H56 - C36
  1600  1609   1 ;    H56 - O29
  1601  1603   1 ;    O26 - H57
  1601  1604   1 ;    O26 - H58
  1601  1605   1 ;    O26 - O27
  1601  1607   1 ;    O26 - O28
  1601  1612   1 ;    O26 - C37
  1603  1606   1 ;    H57 - H59
  1604  1606   1 ;    H58 - H59
  1607  1609   1 ;    O28 - O29
  1607  1611   1 ;    O28 - O30
  1611  1616   1 ;    O30 - C41
  1611  1619   1 ;    O30 - H64
  1611  1621   1 ;    O30 - H66
  1611  1622   1 ;    O30 - O31
  1611  1626   1 ;    O30 - O33
  1611  1627   1 ;    O30 - C42
  1612  1613   1 ;    C37 - C38
  1612  1620   1 ;    C37 - H65
  1612  1623   1 ;    C37 - H67
  1612  1624   1 ;    C37 - O32
  1612  1628   1 ;    C37 - H69
  1612  1629   1 ;    C37 - H70
  1612  1630   1 ;    C37 - O34
  1613  1619   1 ;    C38 - H64
  1613  1621   1 ;    C38 - H66
  1613  1622   1 ;    C38 - O31
  1613  1625   1 ;    C38 - H68
  1613  1627   1 ;    C38 - C42
  1613  1635   1 ;    C38 - C45
  1613  1636   1 ;    C38 - C46
  1613  1642   1 ;    C38 - H76
  1614  1616   1 ;    C39 - C41
  1614  1617   1 ;    C39 - H62
  1614  1619   1 ;    C39 - H64
  1614  1622   1 ;    C39 - O31
  1614  1631   1 ;    C39 - H71
  1614  1632   1 ;    C39 - O35
  1615  1617   1 ;    C40 - H62
  1615  1621   1 ;    C40 - H66
  1615  1625   1 ;    C40 - H68
  1615  1626   1 ;    C40 - O33
  1615  1627   1 ;    C40 - C42
  1615  1632   1 ;    C40 - O35
  1616  1618   1 ;    C41 - H63
  1616  1623   1 ;    C41 - H67
  1616  1633   1 ;    C41 - C43
  1617  1620   1 ;    H62 - H65
  1617  1624   1 ;    H62 - O32
  1617  1633   1 ;    H62 - C43
  1618  1619   1 ;    H63 - H64
  1618  1621   1 ;    H63 - H66
  1618  1622   1 ;    H63 - O31
  1618  1626   1 ;    H63 - O33
  1618  1627   1 ;    H63 - C42
  1619  1620   1 ;    H64 - H65
  1619  1623   1 ;    H64 - H67
  1619  1624   1 ;    H64 - O32
  1620  1622   1 ;    H65 - O31
  1620  1625   1 ;    H65 - H68
  1620  1626   1 ;    H65 - O33
  1620  1632   1 ;    H65 - O35
  1621  1628   1 ;    H66 - H69
  1621  1629   1 ;    H66 - H70
  1621  1630   1 ;    H66 - O34
  1622  1624   1 ;    O31 - O32
  1624  1626   1 ;    O32 - O33
  1624  1632   1 ;    O32 - O35
  1626  1628   1 ;    O33 - H69
  1626  1629   1 ;    O33 - H70
  1626  1630   1 ;    O33 - O34
  1626  1633   1 ;    O33 - C43
  1628  1631   1 ;    H69 - H71
  1629  1631   1 ;    H70 - H71
  1632  1634   1 ;    O35 - C44
  1632  1638   1 ;    O35 - H72
  1632  1640   1 ;    O35 - H74
  1632  1643   1 ;    O35 - O36
  1632  1644   1 ;    O35 - C48
  1632  1651   1 ;    O35 - O39
  1633  1637   1 ;    C43 - C47
  1633  1639   1 ;    C43 - H73
  1633  1645   1 ;    C43 - H77
  1633  1646   1 ;    C43 - H78
  1633  1647   1 ;    C43 - O37
  1633  1649   1 ;    C43 - O38
  1633  1652   1 ;    C43 - H81
  1634  1636   1 ;    C44 - C46
  1634  1642   1 ;    C44 - H76
  1634  1652   1 ;    C44 - H81
  1634  1654   1 ;    C44 - C49
  1635  1640   1 ;    C45 - H74
  1635  1641   1 ;    C45 - H75
  1635  1643   1 ;    C45 - O36
  1635  1644   1 ;    C45 - C48
  1635  1650   1 ;    C45 - H80
  1635  1653   1 ;    C45 - O40
  1636  1638   1 ;    C46 - H72
  1636  1641   1 ;    C46 - H75
  1636  1648   1 ;    C46 - H79
  1636  1651   1 ;    C46 - O39
  1636  1653   1 ;    C46 - O40
  1637  1638   1 ;    C47 - H72
  1637  1640   1 ;    C47 - H74
  1637  1644   1 ;    C47 - C48
  1637  1650   1 ;    C47 - H80
  1637  1651   1 ;    C47 - O39
  1637  1656   1 ;    C47 - C51
  1637  1657   1 ;    C47 - C52
  1637  1660   1 ;    C47 - H83
  1638  1639   1 ;    H72 - H73
  1638  1642   1 ;    H72 - H76
  1638  1649   1 ;    H72 - O38
  1638  1652   1 ;    H72 - H81
  1639  1641   1 ;    H73 - H75
  1639  1643   1 ;    H73 - O36
  1639  1650   1 ;    H73 - H80
  1639  1651   1 ;    H73 - O39
  1639  1653   1 ;    H73 - O40
  1640  1642   1 ;    H74 - H76
  1640  1645   1 ;    H74 - H77
  1640  1646   1 ;    H74 - H78
  1640  1647   1 ;    H74 - O37
  1641  1649   1 ;    H75 - O38
  1641  1654   1 ;    H75 - C49
  1642  1643   1 ;    H76 - O36
  1642  1644   1 ;    H76 - C48
  1642  1651   1 ;    H76 - O39
  1643  1645   1 ;    O36 - H77
  1643  1646   1 ;    O36 - H78
  1643  1647   1 ;    O36 - O37
  1643  1649   1 ;    O36 - O38
  1643  1654   1 ;    O36 - C49
  1645  1648   1 ;    H77 - H79
  1646  1648   1 ;    H78 - H79
  1649  1651   1 ;    O38 - O39
  1649  1653   1 ;    O38 - O40
  1653  1658   1 ;    O40 - C53
  1653  1661   1 ;    O40 - H84
  1653  1663   1 ;    O40 - H86
  1653  1664   1 ;    O40 - O41
  1653  1668   1 ;    O40 - O43
  1653  1669   1 ;    O40 - C54
  1654  1655   1 ;    C49 - C50
  1654  1662   1 ;    C49 - H85
  1654  1665   1 ;    C49 - H87
  1654  1666   1 ;    C49 - O42
  1654  1670   1 ;    C49 - H89
  1654  1671   1 ;    C49 - H90
  1654  1672   1 ;    C49 - O44
  1655  1661   1 ;    C50 - H84
  1655  1663   1 ;    C50 - H86
  1655  1664   1 ;    C50 - O41
  1655  1667   1 ;    C50 - H88
  1655  1669   1 ;    C50 - C54
  1655  1677   1 ;    C50 - C57
  1655  1678   1 ;    C50 - C58
  1655  1684   1 ;    C50 - H96
  1656  1658   1 ;    C51 - C53
  1656  1659   1 ;    C51 - H82
  1656  1661   1 ;    C51 - H84
  1656  1664   1 ;    C51 - O41
  1656  1673   1 ;    C51 - H91
  1656  1674   1 ;    C51 - O45
  1657  1659   1 ;    C52 - H82
  1657  1663   1 ;    C52 - H86
  1657  1667   1 ;    C52 - H88
  1657  1668   1 ;    C52 - O43
  1657  1669   1 ;    C52 - C54
  1657  1674   1 ;    C52 - O45
  1658  1660   1 ;    C53 - H83
  1658  1665   1 ;    C53 - H87
  1658  1675   1 ;    C53 - C55
  1659  1662   1 ;    H82 - H85
  1659  1666   1 ;    H82 - O42
  1659  1675   1 ;    H82 - C55
  1660  1661   1 ;    H83 - H84
  1660  1663   1 ;    H83 - H86
  1660  1664   1 ;    H83 - O41
  1660  1668   1 ;    H83 - O43
  1660  1669   1 ;    H83 - C54
  1661  1662   1 ;    H84 - H85
  1661  1665   1 ;    H84 - H87
  1661  1666   1 ;    H84 - O42
  1662  1664   1 ;    H85 - O41
  1662  1667   1 ;    H85 - H88
  1662  1668   1 ;    H85 - O43
  1662  1674   1 ;    H85 - O45
  1663  1670   1 ;    H86 - H89
  1663  1671   1 ;    H86 - H90
  1663  1672   1 ;    H86 - O44
  1664  1666   1 ;    O41 - O42
  1666  1668   1 ;    O42 - O43
  1666  1674   1 ;    O42 - O45
  1668  1670   1 ;    O43 - H89
  1668  1671   1 ;    O43 - H90
  1668  1672   1 ;    O43 - O44
  1668  1675   1 ;    O43 - C55
  1670  1673   1 ;    H89 - H91
  1671  1673   1 ;    H90 - H91
  1674  1676   1 ;    O45 - C56
  1674  1680   1 ;    O45 - H92
  1674  1682   1 ;    O45 - H94
  1674  1685   1 ;    O45 - O46
  1674  1686   1 ;    O45 - C60
  1674  1693   1 ;    O45 - O49
  1675  1679   1 ;    C55 - C59
  1675  1681   1 ;    C55 - H93
  1675  1687   1 ;    C55 - H97
  1675  1688   1 ;    C55 - H98
  1675  1689   1 ;    C55 - O47
  1675  1691   1 ;    C55 - O48
  1675  1694   1 ;    C55 - H101
  1676  1678   1 ;    C56 - C58
  1676  1684   1 ;    C56 - H96
  1676  1694   1 ;    C56 - H101
  1676  1696   1 ;    C56 - H102
  1677  1682   1 ;    C57 - H94
  1677  1683   1 ;    C57 - H95
  1677  1685   1 ;    C57 - O46
  1677  1686   1 ;    C57 - C60
  1677  1692   1 ;    C57 - H100
  1677  1695   1 ;    C57 - O50
  1678  1680   1 ;    C58 - H92
  1678  1683   1 ;    C58 - H95
  1678  1690   1 ;    C58 - H99
  1678  1693   1 ;    C58 - O49
  1678  1695   1 ;    C58 - O50
  1679  1680   1 ;    C59 - H92
  1679  1682   1 ;    C59 - H94
  1679  1686   1 ;    C59 - C60
  1679  1692   1 ;    C59 - H100
  1679  1693   1 ;    C59 - O49
  1680  1681   1 ;    H92 - H93
  1680  1684   1 ;    H92 - H96
  1680  1691   1 ;    H92 - O48
  1680  1694   1 ;    H92 - H101
  1681  1683   1 ;    H93 - H95
  1681  1685   1 ;    H93 - O46
  1681  1692   1 ;    H93 - H100
  1681  1693   1 ;    H93 - O49
  1681  1695   1 ;    H93 - O50
  1682  1684   1 ;    H94 - H96
  1682  1687   1 ;    H94 - H97
  1682  1688   1 ;    H94 - H98
  1682  1689   1 ;    H94 - O47
  1683  1691   1 ;    H95 - O48
  1683  1696   1 ;    H95 - H102
  1684  1685   1 ;    H96 - O46
  1684  1686   1 ;    H96 - C60
  1684  1693   1 ;    H96 - O49
  1685  1687   1 ;    O46 - H97
  1685  1688   1 ;    O46 - H98
  1685  1689   1 ;    O46 - O47
  1685  1691   1 ;    O46 - O48
  1685  1696   1 ;    O46 - H102
  1687  1690   1 ;    H97 - H99
  1688  1690   1 ;    H98 - H99
  1691  1693   1 ;    O48 - O49
  1691  1695   1 ;    O48 - O50
  1697  1702   1 ;     H1 - C5
  1697  1705   1 ;     H1 - H4
  1697  1707   1 ;     H1 - H6
  1697  1708   1 ;     H1 - O1
  1697  1712   1 ;     H1 - O3
  1697  1713   1 ;     H1 - C6
  1698  1699   1 ;     C1 - C2
  1698  1706   1 ;     C1 - H5
  1698  1709   1 ;     C1 - H7
  1698  1710   1 ;     C1 - O2
  1698  1714   1 ;     C1 - H9
  1698  1715   1 ;     C1 - H10
  1698  1716   1 ;     C1 - O4
  1699  1705   1 ;     C2 - H4
  1699  1707   1 ;     C2 - H6
  1699  1708   1 ;     C2 - O1
  1699  1711   1 ;     C2 - H8
  1699  1713   1 ;     C2 - C6
  1699  1721   1 ;     C2 - C9
  1699  1722   1 ;     C2 - C10
  1699  1728   1 ;     C2 - H16
  1700  1702   1 ;     C3 - C5
  1700  1703   1 ;     C3 - H2
  1700  1705   1 ;     C3 - H4
  1700  1708   1 ;     C3 - O1
  1700  1717   1 ;     C3 - H11
  1700  1718   1 ;     C3 - O5
  1701  1703   1 ;     C4 - H2
  1701  1707   1 ;     C4 - H6
  1701  1711   1 ;     C4 - H8
  1701  1712   1 ;     C4 - O3
  1701  1713   1 ;     C4 - C6
  1701  1718   1 ;     C4 - O5
  1702  1704   1 ;     C5 - H3
  1702  1709   1 ;     C5 - H7
  1702  1719   1 ;     C5 - C7
  1703  1706   1 ;     H2 - H5
  1703  1710   1 ;     H2 - O2
  1703  1719   1 ;     H2 - C7
  1704  1705   1 ;     H3 - H4
  1704  1707   1 ;     H3 - H6
  1704  1708   1 ;     H3 - O1
  1704  1712   1 ;     H3 - O3
  1704  1713   1 ;     H3 - C6
  1705  1706   1 ;     H4 - H5
  1705  1709   1 ;     H4 - H7
  1705  1710   1 ;     H4 - O2
  1706  1708   1 ;     H5 - O1
  1706  1711   1 ;     H5 - H8
  1706  1712   1 ;     H5 - O3
  1706  1718   1 ;     H5 - O5
  1707  1714   1 ;     H6 - H9
  1707  1715   1 ;     H6 - H10
  1707  1716   1 ;     H6 - O4
  1708  1710   1 ;     O1 - O2
  1710  1712   1 ;     O2 - O3
  1710  1718   1 ;     O2 - O5
  1712  1714   1 ;     O3 - H9
  1712  1715   1 ;     O3 - H10
  1712  1716   1 ;     O3 - O4
  1712  1719   1 ;     O3 - C7
  1714  1717   1 ;     H9 - H11
  1715  1717   1 ;    H10 - H11
  1718  1720   1 ;     O5 - C8
  1718  1724   1 ;     O5 - H12
  1718  1726   1 ;     O5 - H14
  1718  1729   1 ;     O5 - O6
  1718  1730   1 ;     O5 - C12
  1718  1737   1 ;     O5 - O9
  1719  1723   1 ;     C7 - C11
  1719  1725   1 ;     C7 - H13
  1719  1731   1 ;     C7 - H17
  1719  1732   1 ;     C7 - H18
  1719  1733   1 ;     C7 - O7
  1719  1735   1 ;     C7 - O8
  1719  1738   1 ;     C7 - H21
  1720  1722   1 ;     C8 - C10
  1720  1728   1 ;     C8 - H16
  1720  1738   1 ;     C8 - H21
  1720  1740   1 ;     C8 - C13
  1721  1726   1 ;     C9 - H14
  1721  1727   1 ;     C9 - H15
  1721  1729   1 ;     C9 - O6
  1721  1730   1 ;     C9 - C12
  1721  1736   1 ;     C9 - H20
  1721  1739   1 ;     C9 - O10
  1722  1724   1 ;    C10 - H12
  1722  1727   1 ;    C10 - H15
  1722  1734   1 ;    C10 - H19
  1722  1737   1 ;    C10 - O9
  1722  1739   1 ;    C10 - O10
  1723  1724   1 ;    C11 - H12
  1723  1726   1 ;    C11 - H14
  1723  1730   1 ;    C11 - C12
  1723  1736   1 ;    C11 - H20
  1723  1737   1 ;    C11 - O9
  1723  1742   1 ;    C11 - C15
  1723  1743   1 ;    C11 - C16
  1723  1746   1 ;    C11 - H23
  1724  1725   1 ;    H12 - H13
  1724  1728   1 ;    H12 - H16
  1724  1735   1 ;    H12 - O8
  1724  1738   1 ;    H12 - H21
  1725  1727   1 ;    H13 - H15
  1725  1729   1 ;    H13 - O6
  1725  1736   1 ;    H13 - H20
  1725  1737   1 ;    H13 - O9
  1725  1739   1 ;    H13 - O10
  1726  1728   1 ;    H14 - H16
  1726  1731   1 ;    H14 - H17
  1726  1732   1 ;    H14 - H18
  1726  1733   1 ;    H14 - O7
  1727  1735   1 ;    H15 - O8
  1727  1740   1 ;    H15 - C13
  1728  1729   1 ;    H16 - O6
  1728  1730   1 ;    H16 - C12
  1728  1737   1 ;    H16 - O9
  1729  1731   1 ;     O6 - H17
  1729  1732   1 ;     O6 - H18
  1729  1733   1 ;     O6 - O7
  1729  1735   1 ;     O6 - O8
  1729  1740   1 ;     O6 - C13
  1731  1734   1 ;    H17 - H19
  1732  1734   1 ;    H18 - H19
  1735  1737   1 ;     O8 - O9
  1735  1739   1 ;     O8 - O10
  1739  1744   1 ;    O10 - C17
  1739  1747   1 ;    O10 - H24
  1739  1749   1 ;    O10 - H26
  1739  1750   1 ;    O10 - O11
  1739  1754   1 ;    O10 - O13
  1739  1755   1 ;    O10 - C18
  1740  1741   1 ;    C13 - C14
  1740  1748   1 ;    C13 - H25
  1740  1751   1 ;    C13 - H27
  1740  1752   1 ;    C13 - O12
  1740  1756   1 ;    C13 - H29
  1740  1757   1 ;    C13 - H30
  1740  1758   1 ;    C13 - O14
  1741  1747   1 ;    C14 - H24
  1741  1749   1 ;    C14 - H26
  1741  1750   1 ;    C14 - O11
  1741  1753   1 ;    C14 - H28
  1741  1755   1 ;    C14 - C18
  1741  1763   1 ;    C14 - C21
  1741  1764   1 ;    C14 - C22
  1741  1770   1 ;    C14 - H36
  1742  1744   1 ;    C15 - C17
  1742  1745   1 ;    C15 - H22
  1742  1747   1 ;    C15 - H24
  1742  1750   1 ;    C15 - O11
  1742  1759   1 ;    C15 - H31
  1742  1760   1 ;    C15 - O15
  1743  1745   1 ;    C16 - H22
  1743  1749   1 ;    C16 - H26
  1743  1753   1 ;    C16 - H28
  1743  1754   1 ;    C16 - O13
  1743  1755   1 ;    C16 - C18
  1743  1760   1 ;    C16 - O15
  1744  1746   1 ;    C17 - H23
  1744  1751   1 ;    C17 - H27
  1744  1761   1 ;    C17 - C19
  1745  1748   1 ;    H22 - H25
  1745  1752   1 ;    H22 - O12
  1745  1761   1 ;    H22 - C19
  1746  1747   1 ;    H23 - H24
  1746  1749   1 ;    H23 - H26
  1746  1750   1 ;    H23 - O11
  1746  1754   1 ;    H23 - O13
  1746  1755   1 ;    H23 - C18
  1747  1748   1 ;    H24 - H25
  1747  1751   1 ;    H24 - H27
  1747  1752   1 ;    H24 - O12
  1748  1750   1 ;    H25 - O11
  1748  1753   1 ;    H25 - H28
  1748  1754   1 ;    H25 - O13
  1748  1760   1 ;    H25 - O15
  1749  1756   1 ;    H26 - H29
  1749  1757   1 ;    H26 - H30
  1749  1758   1 ;    H26 - O14
  1750  1752   1 ;    O11 - O12
  1752  1754   1 ;    O12 - O13
  1752  1760   1 ;    O12 - O15
  1754  1756   1 ;    O13 - H29
  1754  1757   1 ;    O13 - H30
  1754  1758   1 ;    O13 - O14
  1754  1761   1 ;    O13 - C19
  1756  1759   1 ;    H29 - H31
  1757  1759   1 ;    H30 - H31
  1760  1762   1 ;    O15 - C20
  1760  1766   1 ;    O15 - H32
  1760  1768   1 ;    O15 - H34
  1760  1771   1 ;    O15 - O16
  1760  1772   1 ;    O15 - C24
  1760  1779   1 ;    O15 - O19
  1761  1765   1 ;    C19 - C23
  1761  1767   1 ;    C19 - H33
  1761  1773   1 ;    C19 - H37
  1761  1774   1 ;    C19 - H38
  1761  1775   1 ;    C19 - O17
  1761  1777   1 ;    C19 - O18
  1761  1780   1 ;    C19 - H41
  1762  1764   1 ;    C20 - C22
  1762  1770   1 ;    C20 - H36
  1762  1780   1 ;    C20 - H41
  1762  1782   1 ;    C20 - C25
  1763  1768   1 ;    C21 - H34
  1763  1769   1 ;    C21 - H35
  1763  1771   1 ;    C21 - O16
  1763  1772   1 ;    C21 - C24
  1763  1778   1 ;    C21 - H40
  1763  1781   1 ;    C21 - O20
  1764  1766   1 ;    C22 - H32
  1764  1769   1 ;    C22 - H35
  1764  1776   1 ;    C22 - H39
  1764  1779   1 ;    C22 - O19
  1764  1781   1 ;    C22 - O20
  1765  1766   1 ;    C23 - H32
  1765  1768   1 ;    C23 - H34
  1765  1772   1 ;    C23 - C24
  1765  1778   1 ;    C23 - H40
  1765  1779   1 ;    C23 - O19
  1765  1784   1 ;    C23 - C27
  1765  1785   1 ;    C23 - C28
  1765  1788   1 ;    C23 - H43
  1766  1767   1 ;    H32 - H33
  1766  1770   1 ;    H32 - H36
  1766  1777   1 ;    H32 - O18
  1766  1780   1 ;    H32 - H41
  1767  1769   1 ;    H33 - H35
  1767  1771   1 ;    H33 - O16
  1767  1778   1 ;    H33 - H40
  1767  1779   1 ;    H33 - O19
  1767  1781   1 ;    H33 - O20
  1768  1770   1 ;    H34 - H36
  1768  1773   1 ;    H34 - H37
  1768  1774   1 ;    H34 - H38
  1768  1775   1 ;    H34 - O17
  1769  1777   1 ;    H35 - O18
  1769  1782   1 ;    H35 - C25
  1770  1771   1 ;    H36 - O16
  1770  1772   1 ;    H36 - C24
  1770  1779   1 ;    H36 - O19
  1771  1773   1 ;    O16 - H37
  1771  1774   1 ;    O16 - H38
  1771  1775   1 ;    O16 - O17
  1771  1777   1 ;    O16 - O18
  1771  1782   1 ;    O16 - C25
  1773  1776   1 ;    H37 - H39
  1774  1776   1 ;    H38 - H39
  1777  1779   1 ;    O18 - O19
  1777  1781   1 ;    O18 - O20
  1781  1786   1 ;    O20 - C29
  1781  1789   1 ;    O20 - H44
  1781  1791   1 ;    O20 - H46
  1781  1792   1 ;    O20 - O21
  1781  1796   1 ;    O20 - O23
  1781  1797   1 ;    O20 - C30
  1782  1783   1 ;    C25 - C26
  1782  1790   1 ;    C25 - H45
  1782  1793   1 ;    C25 - H47
  1782  1794   1 ;    C25 - O22
  1782  1798   1 ;    C25 - H49
  1782  1799   1 ;    C25 - H50
  1782  1800   1 ;    C25 - O24
  1783  1789   1 ;    C26 - H44
  1783  1791   1 ;    C26 - H46
  1783  1792   1 ;    C26 - O21
  1783  1795   1 ;    C26 - H48
  1783  1797   1 ;    C26 - C30
  1783  1805   1 ;    C26 - C33
  1783  1806   1 ;    C26 - C34
  1783  1812   1 ;    C26 - H56
  1784  1786   1 ;    C27 - C29
  1784  1787   1 ;    C27 - H42
  1784  1789   1 ;    C27 - H44
  1784  1792   1 ;    C27 - O21
  1784  1801   1 ;    C27 - H51
  1784  1802   1 ;    C27 - O25
  1785  1787   1 ;    C28 - H42
  1785  1791   1 ;    C28 - H46
  1785  1795   1 ;    C28 - H48
  1785  1796   1 ;    C28 - O23
  1785  1797   1 ;    C28 - C30
  1785  1802   1 ;    C28 - O25
  1786  1788   1 ;    C29 - H43
  1786  1793   1 ;    C29 - H47
  1786  1803   1 ;    C29 - C31
  1787  1790   1 ;    H42 - H45
  1787  1794   1 ;    H42 - O22
  1787  1803   1 ;    H42 - C31
  1788  1789   1 ;    H43 - H44
  1788  1791   1 ;    H43 - H46
  1788  1792   1 ;    H43 - O21
  1788  1796   1 ;    H43 - O23
  1788  1797   1 ;    H43 - C30
  1789  1790   1 ;    H44 - H45
  1789  1793   1 ;    H44 - H47
  1789  1794   1 ;    H44 - O22
  1790  1792   1 ;    H45 - O21
  1790  1795   1 ;    H45 - H48
  1790  1796   1 ;    H45 - O23
  1790  1802   1 ;    H45 - O25
  1791  1798   1 ;    H46 - H49
  1791  1799   1 ;    H46 - H50
  1791  1800   1 ;    H46 - O24
  1792  1794   1 ;    O21 - O22
  1794  1796   1 ;    O22 - O23
  1794  1802   1 ;    O22 - O25
  1796  1798   1 ;    O23 - H49
  1796  1799   1 ;    O23 - H50
  1796  1800   1 ;    O23 - O24
  1796  1803   1 ;    O23 - C31
  1798  1801   1 ;    H49 - H51
  1799  1801   1 ;    H50 - H51
  1802  1804   1 ;    O25 - C32
  1802  1808   1 ;    O25 - H52
  1802  1810   1 ;    O25 - H54
  1802  1813   1 ;    O25 - O26
  1802  1814   1 ;    O25 - C36
  1802  1821   1 ;    O25 - O29
  1803  1807   1 ;    C31 - C35
  1803  1809   1 ;    C31 - H53
  1803  1815   1 ;    C31 - H57
  1803  1816   1 ;    C31 - H58
  1803  1817   1 ;    C31 - O27
  1803  1819   1 ;    C31 - O28
  1803  1822   1 ;    C31 - H61
  1804  1806   1 ;    C32 - C34
  1804  1812   1 ;    C32 - H56
  1804  1822   1 ;    C32 - H61
  1804  1824   1 ;    C32 - C37
  1805  1810   1 ;    C33 - H54
  1805  1811   1 ;    C33 - H55
  1805  1813   1 ;    C33 - O26
  1805  1814   1 ;    C33 - C36
  1805  1820   1 ;    C33 - H60
  1805  1823   1 ;    C33 - O30
  1806  1808   1 ;    C34 - H52
  1806  1811   1 ;    C34 - H55
  1806  1818   1 ;    C34 - H59
  1806  1821   1 ;    C34 - O29
  1806  1823   1 ;    C34 - O30
  1807  1808   1 ;    C35 - H52
  1807  1810   1 ;    C35 - H54
  1807  1814   1 ;    C35 - C36
  1807  1820   1 ;    C35 - H60
  1807  1821   1 ;    C35 - O29
  1807  1826   1 ;    C35 - C39
  1807  1827   1 ;    C35 - C40
  1807  1830   1 ;    C35 - H63
  1808  1809   1 ;    H52 - H53
  1808  1812   1 ;    H52 - H56
  1808  1819   1 ;    H52 - O28
  1808  1822   1 ;    H52 - H61
  1809  1811   1 ;    H53 - H55
  1809  1813   1 ;    H53 - O26
  1809  1820   1 ;    H53 - H60
  1809  1821   1 ;    H53 - O29
  1809  1823   1 ;    H53 - O30
  1810  1812   1 ;    H54 - H56
  1810  1815   1 ;    H54 - H57
  1810  1816   1 ;    H54 - H58
  1810  1817   1 ;    H54 - O27
  1811  1819   1 ;    H55 - O28
  1811  1824   1 ;    H55 - C37
  1812  1813   1 ;    H56 - O26
  1812  1814   1 ;    H56 - C36
  1812  1821   1 ;    H56 - O29
  1813  1815   1 ;    O26 - H57
  1813  1816   1 ;    O26 - H58
  1813  1817   1 ;    O26 - O27
  1813  1819   1 ;    O26 - O28
  1813  1824   1 ;    O26 - C37
  1815  1818   1 ;    H57 - H59
  1816  1818   1 ;    H58 - H59
  1819  1821   1 ;    O28 - O29
  1819  1823   1 ;    O28 - O30
  1823  1828   1 ;    O30 - C41
  1823  1831   1 ;    O30 - H64
  1823  1833   1 ;    O30 - H66
  1823  1834   1 ;    O30 - O31
  1823  1838   1 ;    O30 - O33
  1823  1839   1 ;    O30 - C42
  1824  1825   1 ;    C37 - C38
  1824  1832   1 ;    C37 - H65
  1824  1835   1 ;    C37 - H67
  1824  1836   1 ;    C37 - O32
  1824  1840   1 ;    C37 - H69
  1824  1841   1 ;    C37 - H70
  1824  1842   1 ;    C37 - O34
  1825  1831   1 ;    C38 - H64
  1825  1833   1 ;    C38 - H66
  1825  1834   1 ;    C38 - O31
  1825  1837   1 ;    C38 - H68
  1825  1839   1 ;    C38 - C42
  1825  1847   1 ;    C38 - C45
  1825  1848   1 ;    C38 - C46
  1825  1854   1 ;    C38 - H76
  1826  1828   1 ;    C39 - C41
  1826  1829   1 ;    C39 - H62
  1826  1831   1 ;    C39 - H64
  1826  1834   1 ;    C39 - O31
  1826  1843   1 ;    C39 - H71
  1826  1844   1 ;    C39 - O35
  1827  1829   1 ;    C40 - H62
  1827  1833   1 ;    C40 - H66
  1827  1837   1 ;    C40 - H68
  1827  1838   1 ;    C40 - O33
  1827  1839   1 ;    C40 - C42
  1827  1844   1 ;    C40 - O35
  1828  1830   1 ;    C41 - H63
  1828  1835   1 ;    C41 - H67
  1828  1845   1 ;    C41 - C43
  1829  1832   1 ;    H62 - H65
  1829  1836   1 ;    H62 - O32
  1829  1845   1 ;    H62 - C43
  1830  1831   1 ;    H63 - H64
  1830  1833   1 ;    H63 - H66
  1830  1834   1 ;    H63 - O31
  1830  1838   1 ;    H63 - O33
  1830  1839   1 ;    H63 - C42
  1831  1832   1 ;    H64 - H65
  1831  1835   1 ;    H64 - H67
  1831  1836   1 ;    H64 - O32
  1832  1834   1 ;    H65 - O31
  1832  1837   1 ;    H65 - H68
  1832  1838   1 ;    H65 - O33
  1832  1844   1 ;    H65 - O35
  1833  1840   1 ;    H66 - H69
  1833  1841   1 ;    H66 - H70
  1833  1842   1 ;    H66 - O34
  1834  1836   1 ;    O31 - O32
  1836  1838   1 ;    O32 - O33
  1836  1844   1 ;    O32 - O35
  1838  1840   1 ;    O33 - H69
  1838  1841   1 ;    O33 - H70
  1838  1842   1 ;    O33 - O34
  1838  1845   1 ;    O33 - C43
  1840  1843   1 ;    H69 - H71
  1841  1843   1 ;    H70 - H71
  1844  1846   1 ;    O35 - C44
  1844  1850   1 ;    O35 - H72
  1844  1852   1 ;    O35 - H74
  1844  1855   1 ;    O35 - O36
  1844  1856   1 ;    O35 - C48
  1844  1863   1 ;    O35 - O39
  1845  1849   1 ;    C43 - C47
  1845  1851   1 ;    C43 - H73
  1845  1857   1 ;    C43 - H77
  1845  1858   1 ;    C43 - H78
  1845  1859   1 ;    C43 - O37
  1845  1861   1 ;    C43 - O38
  1845  1864   1 ;    C43 - H81
  1846  1848   1 ;    C44 - C46
  1846  1854   1 ;    C44 - H76
  1846  1864   1 ;    C44 - H81
  1846  1866   1 ;    C44 - C49
  1847  1852   1 ;    C45 - H74
  1847  1853   1 ;    C45 - H75
  1847  1855   1 ;    C45 - O36
  1847  1856   1 ;    C45 - C48
  1847  1862   1 ;    C45 - H80
  1847  1865   1 ;    C45 - O40
  1848  1850   1 ;    C46 - H72
  1848  1853   1 ;    C46 - H75
  1848  1860   1 ;    C46 - H79
  1848  1863   1 ;    C46 - O39
  1848  1865   1 ;    C46 - O40
  1849  1850   1 ;    C47 - H72
  1849  1852   1 ;    C47 - H74
  1849  1856   1 ;    C47 - C48
  1849  1862   1 ;    C47 - H80
  1849  1863   1 ;    C47 - O39
  1849  1868   1 ;    C47 - C51
  1849  1869   1 ;    C47 - C52
  1849  1872   1 ;    C47 - H83
  1850  1851   1 ;    H72 - H73
  1850  1854   1 ;    H72 - H76
  1850  1861   1 ;    H72 - O38
  1850  1864   1 ;    H72 - H81
  1851  1853   1 ;    H73 - H75
  1851  1855   1 ;    H73 - O36
  1851  1862   1 ;    H73 - H80
  1851  1863   1 ;    H73 - O39
  1851  1865   1 ;    H73 - O40
  1852  1854   1 ;    H74 - H76
  1852  1857   1 ;    H74 - H77
  1852  1858   1 ;    H74 - H78
  1852  1859   1 ;    H74 - O37
  1853  1861   1 ;    H75 - O38
  1853  1866   1 ;    H75 - C49
  1854  1855   1 ;    H76 - O36
  1854  1856   1 ;    H76 - C48
  1854  1863   1 ;    H76 - O39
  1855  1857   1 ;    O36 - H77
  1855  1858   1 ;    O36 - H78
  1855  1859   1 ;    O36 - O37
  1855  1861   1 ;    O36 - O38
  1855  1866   1 ;    O36 - C49
  1857  1860   1 ;    H77 - H79
  1858  1860   1 ;    H78 - H79
  1861  1863   1 ;    O38 - O39
  1861  1865   1 ;    O38 - O40
  1865  1870   1 ;    O40 - C53
  1865  1873   1 ;    O40 - H84
  1865  1875   1 ;    O40 - H86
  1865  1876   1 ;    O40 - O41
  1865  1880   1 ;    O40 - O43
  1865  1881   1 ;    O40 - C54
  1866  1867   1 ;    C49 - C50
  1866  1874   1 ;    C49 - H85
  1866  1877   1 ;    C49 - H87
  1866  1878   1 ;    C49 - O42
  1866  1882   1 ;    C49 - H89
  1866  1883   1 ;    C49 - H90
  1866  1884   1 ;    C49 - O44
  1867  1873   1 ;    C50 - H84
  1867  1875   1 ;    C50 - H86
  1867  1876   1 ;    C50 - O41
  1867  1879   1 ;    C50 - H88
  1867  1881   1 ;    C50 - C54
  1867  1889   1 ;    C50 - C57
  1867  1890   1 ;    C50 - C58
  1867  1896   1 ;    C50 - H96
  1868  1870   1 ;    C51 - C53
  1868  1871   1 ;    C51 - H82
  1868  1873   1 ;    C51 - H84
  1868  1876   1 ;    C51 - O41
  1868  1885   1 ;    C51 - H91
  1868  1886   1 ;    C51 - O45
  1869  1871   1 ;    C52 - H82
  1869  1875   1 ;    C52 - H86
  1869  1879   1 ;    C52 - H88
  1869  1880   1 ;    C52 - O43
  1869  1881   1 ;    C52 - C54
  1869  1886   1 ;    C52 - O45
  1870  1872   1 ;    C53 - H83
  1870  1877   1 ;    C53 - H87
  1870  1887   1 ;    C53 - C55
  1871  1874   1 ;    H82 - H85
  1871  1878   1 ;    H82 - O42
  1871  1887   1 ;    H82 - C55
  1872  1873   1 ;    H83 - H84
  1872  1875   1 ;    H83 - H86
  1872  1876   1 ;    H83 - O41
  1872  1880   1 ;    H83 - O43
  1872  1881   1 ;    H83 - C54
  1873  1874   1 ;    H84 - H85
  1873  1877   1 ;    H84 - H87
  1873  1878   1 ;    H84 - O42
  1874  1876   1 ;    H85 - O41
  1874  1879   1 ;    H85 - H88
  1874  1880   1 ;    H85 - O43
  1874  1886   1 ;    H85 - O45
  1875  1882   1 ;    H86 - H89
  1875  1883   1 ;    H86 - H90
  1875  1884   1 ;    H86 - O44
  1876  1878   1 ;    O41 - O42
  1878  1880   1 ;    O42 - O43
  1878  1886   1 ;    O42 - O45
  1880  1882   1 ;    O43 - H89
  1880  1883   1 ;    O43 - H90
  1880  1884   1 ;    O43 - O44
  1880  1887   1 ;    O43 - C55
  1882  1885   1 ;    H89 - H91
  1883  1885   1 ;    H90 - H91
  1886  1888   1 ;    O45 - C56
  1886  1892   1 ;    O45 - H92
  1886  1894   1 ;    O45 - H94
  1886  1897   1 ;    O45 - O46
  1886  1898   1 ;    O45 - C60
  1886  1905   1 ;    O45 - O49
  1887  1891   1 ;    C55 - C59
  1887  1893   1 ;    C55 - H93
  1887  1899   1 ;    C55 - H97
  1887  1900   1 ;    C55 - H98
  1887  1901   1 ;    C55 - O47
  1887  1903   1 ;    C55 - O48
  1887  1906   1 ;    C55 - H101
  1888  1890   1 ;    C56 - C58
  1888  1896   1 ;    C56 - H96
  1888  1906   1 ;    C56 - H101
  1888  1908   1 ;    C56 - H102
  1889  1894   1 ;    C57 - H94
  1889  1895   1 ;    C57 - H95
  1889  1897   1 ;    C57 - O46
  1889  1898   1 ;    C57 - C60
  1889  1904   1 ;    C57 - H100
  1889  1907   1 ;    C57 - O50
  1890  1892   1 ;    C58 - H92
  1890  1895   1 ;    C58 - H95
  1890  1902   1 ;    C58 - H99
  1890  1905   1 ;    C58 - O49
  1890  1907   1 ;    C58 - O50
  1891  1892   1 ;    C59 - H92
  1891  1894   1 ;    C59 - H94
  1891  1898   1 ;    C59 - C60
  1891  1904   1 ;    C59 - H100
  1891  1905   1 ;    C59 - O49
  1892  1893   1 ;    H92 - H93
  1892  1896   1 ;    H92 - H96
  1892  1903   1 ;    H92 - O48
  1892  1906   1 ;    H92 - H101
  1893  1895   1 ;    H93 - H95
  1893  1897   1 ;    H93 - O46
  1893  1904   1 ;    H93 - H100
  1893  1905   1 ;    H93 - O49
  1893  1907   1 ;    H93 - O50
  1894  1896   1 ;    H94 - H96
  1894  1899   1 ;    H94 - H97
  1894  1900   1 ;    H94 - H98
  1894  1901   1 ;    H94 - O47
  1895  1903   1 ;    H95 - O48
  1895  1908   1 ;    H95 - H102
  1896  1897   1 ;    H96 - O46
  1896  1898   1 ;    H96 - C60
  1896  1905   1 ;    H96 - O49
  1897  1899   1 ;    O46 - H97
  1897  1900   1 ;    O46 - H98
  1897  1901   1 ;    O46 - O47
  1897  1903   1 ;    O46 - O48
  1897  1908   1 ;    O46 - H102
  1899  1902   1 ;    H97 - H99
  1900  1902   1 ;    H98 - H99
  1903  1905   1 ;    O48 - O49
  1903  1907   1 ;    O48 - O50
  1909  1914   1 ;     H1 - C5
  1909  1917   1 ;     H1 - H4
  1909  1919   1 ;     H1 - H6
  1909  1920   1 ;     H1 - O1
  1909  1924   1 ;     H1 - O3
  1909  1925   1 ;     H1 - C6
  1910  1911   1 ;     C1 - C2
  1910  1918   1 ;     C1 - H5
  1910  1921   1 ;     C1 - H7
  1910  1922   1 ;     C1 - O2
  1910  1926   1 ;     C1 - H9
  1910  1927   1 ;     C1 - H10
  1910  1928   1 ;     C1 - O4
  1911  1917   1 ;     C2 - H4
  1911  1919   1 ;     C2 - H6
  1911  1920   1 ;     C2 - O1
  1911  1923   1 ;     C2 - H8
  1911  1925   1 ;     C2 - C6
  1911  1933   1 ;     C2 - C9
  1911  1934   1 ;     C2 - C10
  1911  1940   1 ;     C2 - H16
  1912  1914   1 ;     C3 - C5
  1912  1915   1 ;     C3 - H2
  1912  1917   1 ;     C3 - H4
  1912  1920   1 ;     C3 - O1
  1912  1929   1 ;     C3 - H11
  1912  1930   1 ;     C3 - O5
  1913  1915   1 ;     C4 - H2
  1913  1919   1 ;     C4 - H6
  1913  1923   1 ;     C4 - H8
  1913  1924   1 ;     C4 - O3
  1913  1925   1 ;     C4 - C6
  1913  1930   1 ;     C4 - O5
  1914  1916   1 ;     C5 - H3
  1914  1921   1 ;     C5 - H7
  1914  1931   1 ;     C5 - C7
  1915  1918   1 ;     H2 - H5
  1915  1922   1 ;     H2 - O2
  1915  1931   1 ;     H2 - C7
  1916  1917   1 ;     H3 - H4
  1916  1919   1 ;     H3 - H6
  1916  1920   1 ;     H3 - O1
  1916  1924   1 ;     H3 - O3
  1916  1925   1 ;     H3 - C6
  1917  1918   1 ;     H4 - H5
  1917  1921   1 ;     H4 - H7
  1917  1922   1 ;     H4 - O2
  1918  1920   1 ;     H5 - O1
  1918  1923   1 ;     H5 - H8
  1918  1924   1 ;     H5 - O3
  1918  1930   1 ;     H5 - O5
  1919  1926   1 ;     H6 - H9
  1919  1927   1 ;     H6 - H10
  1919  1928   1 ;     H6 - O4
  1920  1922   1 ;     O1 - O2
  1922  1924   1 ;     O2 - O3
  1922  1930   1 ;     O2 - O5
  1924  1926   1 ;     O3 - H9
  1924  1927   1 ;     O3 - H10
  1924  1928   1 ;     O3 - O4
  1924  1931   1 ;     O3 - C7
  1926  1929   1 ;     H9 - H11
  1927  1929   1 ;    H10 - H11
  1930  1932   1 ;     O5 - C8
  1930  1936   1 ;     O5 - H12
  1930  1938   1 ;     O5 - H14
  1930  1941   1 ;     O5 - O6
  1930  1942   1 ;     O5 - C12
  1930  1949   1 ;     O5 - O9
  1931  1935   1 ;     C7 - C11
  1931  1937   1 ;     C7 - H13
  1931  1943   1 ;     C7 - H17
  1931  1944   1 ;     C7 - H18
  1931  1945   1 ;     C7 - O7
  1931  1947   1 ;     C7 - O8
  1931  1950   1 ;     C7 - H21
  1932  1934   1 ;     C8 - C10
  1932  1940   1 ;     C8 - H16
  1932  1950   1 ;     C8 - H21
  1932  1952   1 ;     C8 - C13
  1933  1938   1 ;     C9 - H14
  1933  1939   1 ;     C9 - H15
  1933  1941   1 ;     C9 - O6
  1933  1942   1 ;     C9 - C12
  1933  1948   1 ;     C9 - H20
  1933  1951   1 ;     C9 - O10
  1934  1936   1 ;    C10 - H12
  1934  1939   1 ;    C10 - H15
  1934  1946   1 ;    C10 - H19
  1934  1949   1 ;    C10 - O9
  1934  1951   1 ;    C10 - O10
  1935  1936   1 ;    C11 - H12
  1935  1938   1 ;    C11 - H14
  1935  1942   1 ;    C11 - C12
  1935  1948   1 ;    C11 - H20
  1935  1949   1 ;    C11 - O9
  1935  1954   1 ;    C11 - C15
  1935  1955   1 ;    C11 - C16
  1935  1958   1 ;    C11 - H23
  1936  1937   1 ;    H12 - H13
  1936  1940   1 ;    H12 - H16
  1936  1947   1 ;    H12 - O8
  1936  1950   1 ;    H12 - H21
  1937  1939   1 ;    H13 - H15
  1937  1941   1 ;    H13 - O6
  1937  1948   1 ;    H13 - H20
  1937  1949   1 ;    H13 - O9
  1937  1951   1 ;    H13 - O10
  1938  1940   1 ;    H14 - H16
  1938  1943   1 ;    H14 - H17
  1938  1944   1 ;    H14 - H18
  1938  1945   1 ;    H14 - O7
  1939  1947   1 ;    H15 - O8
  1939  1952   1 ;    H15 - C13
  1940  1941   1 ;    H16 - O6
  1940  1942   1 ;    H16 - C12
  1940  1949   1 ;    H16 - O9
  1941  1943   1 ;     O6 - H17
  1941  1944   1 ;     O6 - H18
  1941  1945   1 ;     O6 - O7
  1941  1947   1 ;     O6 - O8
  1941  1952   1 ;     O6 - C13
  1943  1946   1 ;    H17 - H19
  1944  1946   1 ;    H18 - H19
  1947  1949   1 ;     O8 - O9
  1947  1951   1 ;     O8 - O10
  1951  1956   1 ;    O10 - C17
  1951  1959   1 ;    O10 - H24
  1951  1961   1 ;    O10 - H26
  1951  1962   1 ;    O10 - O11
  1951  1966   1 ;    O10 - O13
  1951  1967   1 ;    O10 - C18
  1952  1953   1 ;    C13 - C14
  1952  1960   1 ;    C13 - H25
  1952  1963   1 ;    C13 - H27
  1952  1964   1 ;    C13 - O12
  1952  1968   1 ;    C13 - H29
  1952  1969   1 ;    C13 - H30
  1952  1970   1 ;    C13 - O14
  1953  1959   1 ;    C14 - H24
  1953  1961   1 ;    C14 - H26
  1953  1962   1 ;    C14 - O11
  1953  1965   1 ;    C14 - H28
  1953  1967   1 ;    C14 - C18
  1953  1975   1 ;    C14 - C21
  1953  1976   1 ;    C14 - C22
  1953  1982   1 ;    C14 - H36
  1954  1956   1 ;    C15 - C17
  1954  1957   1 ;    C15 - H22
  1954  1959   1 ;    C15 - H24
  1954  1962   1 ;    C15 - O11
  1954  1971   1 ;    C15 - H31
  1954  1972   1 ;    C15 - O15
  1955  1957   1 ;    C16 - H22
  1955  1961   1 ;    C16 - H26
  1955  1965   1 ;    C16 - H28
  1955  1966   1 ;    C16 - O13
  1955  1967   1 ;    C16 - C18
  1955  1972   1 ;    C16 - O15
  1956  1958   1 ;    C17 - H23
  1956  1963   1 ;    C17 - H27
  1956  1973   1 ;    C17 - C19
  1957  1960   1 ;    H22 - H25
  1957  1964   1 ;    H22 - O12
  1957  1973   1 ;    H22 - C19
  1958  1959   1 ;    H23 - H24
  1958  1961   1 ;    H23 - H26
  1958  1962   1 ;    H23 - O11
  1958  1966   1 ;    H23 - O13
  1958  1967   1 ;    H23 - C18
  1959  1960   1 ;    H24 - H25
  1959  1963   1 ;    H24 - H27
  1959  1964   1 ;    H24 - O12
  1960  1962   1 ;    H25 - O11
  1960  1965   1 ;    H25 - H28
  1960  1966   1 ;    H25 - O13
  1960  1972   1 ;    H25 - O15
  1961  1968   1 ;    H26 - H29
  1961  1969   1 ;    H26 - H30
  1961  1970   1 ;    H26 - O14
  1962  1964   1 ;    O11 - O12
  1964  1966   1 ;    O12 - O13
  1964  1972   1 ;    O12 - O15
  1966  1968   1 ;    O13 - H29
  1966  1969   1 ;    O13 - H30
  1966  1970   1 ;    O13 - O14
  1966  1973   1 ;    O13 - C19
  1968  1971   1 ;    H29 - H31
  1969  1971   1 ;    H30 - H31
  1972  1974   1 ;    O15 - C20
  1972  1978   1 ;    O15 - H32
  1972  1980   1 ;    O15 - H34
  1972  1983   1 ;    O15 - O16
  1972  1984   1 ;    O15 - C24
  1972  1991   1 ;    O15 - O19
  1973  1977   1 ;    C19 - C23
  1973  1979   1 ;    C19 - H33
  1973  1985   1 ;    C19 - H37
  1973  1986   1 ;    C19 - H38
  1973  1987   1 ;    C19 - O17
  1973  1989   1 ;    C19 - O18
  1973  1992   1 ;    C19 - H41
  1974  1976   1 ;    C20 - C22
  1974  1982   1 ;    C20 - H36
  1974  1992   1 ;    C20 - H41
  1974  1994   1 ;    C20 - C25
  1975  1980   1 ;    C21 - H34
  1975  1981   1 ;    C21 - H35
  1975  1983   1 ;    C21 - O16
  1975  1984   1 ;    C21 - C24
  1975  1990   1 ;    C21 - H40
  1975  1993   1 ;    C21 - O20
  1976  1978   1 ;    C22 - H32
  1976  1981   1 ;    C22 - H35
  1976  1988   1 ;    C22 - H39
  1976  1991   1 ;    C22 - O19
  1976  1993   1 ;    C22 - O20
  1977  1978   1 ;    C23 - H32
  1977  1980   1 ;    C23 - H34
  1977  1984   1 ;    C23 - C24
  1977  1990   1 ;    C23 - H40
  1977  1991   1 ;    C23 - O19
  1977  1996   1 ;    C23 - C27
  1977  1997   1 ;    C23 - C28
  1977  2000   1 ;    C23 - H43
  1978  1979   1 ;    H32 - H33
  1978  1982   1 ;    H32 - H36
  1978  1989   1 ;    H32 - O18
  1978  1992   1 ;    H32 - H41
  1979  1981   1 ;    H33 - H35
  1979  1983   1 ;    H33 - O16
  1979  1990   1 ;    H33 - H40
  1979  1991   1 ;    H33 - O19
  1979  1993   1 ;    H33 - O20
  1980  1982   1 ;    H34 - H36
  1980  1985   1 ;    H34 - H37
  1980  1986   1 ;    H34 - H38
  1980  1987   1 ;    H34 - O17
  1981  1989   1 ;    H35 - O18
  1981  1994   1 ;    H35 - C25
  1982  1983   1 ;    H36 - O16
  1982  1984   1 ;    H36 - C24
  1982  1991   1 ;    H36 - O19
  1983  1985   1 ;    O16 - H37
  1983  1986   1 ;    O16 - H38
  1983  1987   1 ;    O16 - O17
  1983  1989   1 ;    O16 - O18
  1983  1994   1 ;    O16 - C25
  1985  1988   1 ;    H37 - H39
  1986  1988   1 ;    H38 - H39
  1989  1991   1 ;    O18 - O19
  1989  1993   1 ;    O18 - O20
  1993  1998   1 ;    O20 - C29
  1993  2001   1 ;    O20 - H44
  1993  2003   1 ;    O20 - H46
  1993  2004   1 ;    O20 - O21
  1993  2008   1 ;    O20 - O23
  1993  2009   1 ;    O20 - C30
  1994  1995   1 ;    C25 - C26
  1994  2002   1 ;    C25 - H45
  1994  2005   1 ;    C25 - H47
  1994  2006   1 ;    C25 - O22
  1994  2010   1 ;    C25 - H49
  1994  2011   1 ;    C25 - H50
  1994  2012   1 ;    C25 - O24
  1995  2001   1 ;    C26 - H44
  1995  2003   1 ;    C26 - H46
  1995  2004   1 ;    C26 - O21
  1995  2007   1 ;    C26 - H48
  1995  2009   1 ;    C26 - C30
  1995  2017   1 ;    C26 - C33
  1995  2018   1 ;    C26 - C34
  1995  2024   1 ;    C26 - H56
  1996  1998   1 ;    C27 - C29
  1996  1999   1 ;    C27 - H42
  1996  2001   1 ;    C27 - H44
  1996  2004   1 ;    C27 - O21
  1996  2013   1 ;    C27 - H51
  1996  2014   1 ;    C27 - O25
  1997  1999   1 ;    C28 - H42
  1997  2003   1 ;    C28 - H46
  1997  2007   1 ;    C28 - H48
  1997  2008   1 ;    C28 - O23
  1997  2009   1 ;    C28 - C30
  1997  2014   1 ;    C28 - O25
  1998  2000   1 ;    C29 - H43
  1998  2005   1 ;    C29 - H47
  1998  2015   1 ;    C29 - C31
  1999  2002   1 ;    H42 - H45
  1999  2006   1 ;    H42 - O22
  1999  2015   1 ;    H42 - C31
  2000  2001   1 ;    H43 - H44
  2000  2003   1 ;    H43 - H46
  2000  2004   1 ;    H43 - O21
  2000  2008   1 ;    H43 - O23
  2000  2009   1 ;    H43 - C30
  2001  2002   1 ;    H44 - H45
  2001  2005   1 ;    H44 - H47
  2001  2006   1 ;    H44 - O22
  2002  2004   1 ;    H45 - O21
  2002  2007   1 ;    H45 - H48
  2002  2008   1 ;    H45 - O23
  2002  2014   1 ;    H45 - O25
  2003  2010   1 ;    H46 - H49
  2003  2011   1 ;    H46 - H50
  2003  2012   1 ;    H46 - O24
  2004  2006   1 ;    O21 - O22
  2006  2008   1 ;    O22 - O23
  2006  2014   1 ;    O22 - O25
  2008  2010   1 ;    O23 - H49
  2008  2011   1 ;    O23 - H50
  2008  2012   1 ;    O23 - O24
  2008  2015   1 ;    O23 - C31
  2010  2013   1 ;    H49 - H51
  2011  2013   1 ;    H50 - H51
  2014  2016   1 ;    O25 - C32
  2014  2020   1 ;    O25 - H52
  2014  2022   1 ;    O25 - H54
  2014  2025   1 ;    O25 - O26
  2014  2026   1 ;    O25 - C36
  2014  2033   1 ;    O25 - O29
  2015  2019   1 ;    C31 - C35
  2015  2021   1 ;    C31 - H53
  2015  2027   1 ;    C31 - H57
  2015  2028   1 ;    C31 - H58
  2015  2029   1 ;    C31 - O27
  2015  2031   1 ;    C31 - O28
  2015  2034   1 ;    C31 - H61
  2016  2018   1 ;    C32 - C34
  2016  2024   1 ;    C32 - H56
  2016  2034   1 ;    C32 - H61
  2016  2036   1 ;    C32 - C37
  2017  2022   1 ;    C33 - H54
  2017  2023   1 ;    C33 - H55
  2017  2025   1 ;    C33 - O26
  2017  2026   1 ;    C33 - C36
  2017  2032   1 ;    C33 - H60
  2017  2035   1 ;    C33 - O30
  2018  2020   1 ;    C34 - H52
  2018  2023   1 ;    C34 - H55
  2018  2030   1 ;    C34 - H59
  2018  2033   1 ;    C34 - O29
  2018  2035   1 ;    C34 - O30
  2019  2020   1 ;    C35 - H52
  2019  2022   1 ;    C35 - H54
  2019  2026   1 ;    C35 - C36
  2019  2032   1 ;    C35 - H60
  2019  2033   1 ;    C35 - O29
  2019  2038   1 ;    C35 - C39
  2019  2039   1 ;    C35 - C40
  2019  2042   1 ;    C35 - H63
  2020  2021   1 ;    H52 - H53
  2020  2024   1 ;    H52 - H56
  2020  2031   1 ;    H52 - O28
  2020  2034   1 ;    H52 - H61
  2021  2023   1 ;    H53 - H55
  2021  2025   1 ;    H53 - O26
  2021  2032   1 ;    H53 - H60
  2021  2033   1 ;    H53 - O29
  2021  2035   1 ;    H53 - O30
  2022  2024   1 ;    H54 - H56
  2022  2027   1 ;    H54 - H57
  2022  2028   1 ;    H54 - H58
  2022  2029   1 ;    H54 - O27
  2023  2031   1 ;    H55 - O28
  2023  2036   1 ;    H55 - C37
  2024  2025   1 ;    H56 - O26
  2024  2026   1 ;    H56 - C36
  2024  2033   1 ;    H56 - O29
  2025  2027   1 ;    O26 - H57
  2025  2028   1 ;    O26 - H58
  2025  2029   1 ;    O26 - O27
  2025  2031   1 ;    O26 - O28
  2025  2036   1 ;    O26 - C37
  2027  2030   1 ;    H57 - H59
  2028  2030   1 ;    H58 - H59
  2031  2033   1 ;    O28 - O29
  2031  2035   1 ;    O28 - O30
  2035  2040   1 ;    O30 - C41
  2035  2043   1 ;    O30 - H64
  2035  2045   1 ;    O30 - H66
  2035  2046   1 ;    O30 - O31
  2035  2050   1 ;    O30 - O33
  2035  2051   1 ;    O30 - C42
  2036  2037   1 ;    C37 - C38
  2036  2044   1 ;    C37 - H65
  2036  2047   1 ;    C37 - H67
  2036  2048   1 ;    C37 - O32
  2036  2052   1 ;    C37 - H69
  2036  2053   1 ;    C37 - H70
  2036  2054   1 ;    C37 - O34
  2037  2043   1 ;    C38 - H64
  2037  2045   1 ;    C38 - H66
  2037  2046   1 ;    C38 - O31
  2037  2049   1 ;    C38 - H68
  2037  2051   1 ;    C38 - C42
  2037  2059   1 ;    C38 - C45
  2037  2060   1 ;    C38 - C46
  2037  2066   1 ;    C38 - H76
  2038  2040   1 ;    C39 - C41
  2038  2041   1 ;    C39 - H62
  2038  2043   1 ;    C39 - H64
  2038  2046   1 ;    C39 - O31
  2038  2055   1 ;    C39 - H71
  2038  2056   1 ;    C39 - O35
  2039  2041   1 ;    C40 - H62
  2039  2045   1 ;    C40 - H66
  2039  2049   1 ;    C40 - H68
  2039  2050   1 ;    C40 - O33
  2039  2051   1 ;    C40 - C42
  2039  2056   1 ;    C40 - O35
  2040  2042   1 ;    C41 - H63
  2040  2047   1 ;    C41 - H67
  2040  2057   1 ;    C41 - C43
  2041  2044   1 ;    H62 - H65
  2041  2048   1 ;    H62 - O32
  2041  2057   1 ;    H62 - C43
  2042  2043   1 ;    H63 - H64
  2042  2045   1 ;    H63 - H66
  2042  2046   1 ;    H63 - O31
  2042  2050   1 ;    H63 - O33
  2042  2051   1 ;    H63 - C42
  2043  2044   1 ;    H64 - H65
  2043  2047   1 ;    H64 - H67
  2043  2048   1 ;    H64 - O32
  2044  2046   1 ;    H65 - O31
  2044  2049   1 ;    H65 - H68
  2044  2050   1 ;    H65 - O33
  2044  2056   1 ;    H65 - O35
  2045  2052   1 ;    H66 - H69
  2045  2053   1 ;    H66 - H70
  2045  2054   1 ;    H66 - O34
  2046  2048   1 ;    O31 - O32
  2048  2050   1 ;    O32 - O33
  2048  2056   1 ;    O32 - O35
  2050  2052   1 ;    O33 - H69
  2050  2053   1 ;    O33 - H70
  2050  2054   1 ;    O33 - O34
  2050  2057   1 ;    O33 - C43
  2052  2055   1 ;    H69 - H71
  2053  2055   1 ;    H70 - H71
  2056  2058   1 ;    O35 - C44
  2056  2062   1 ;    O35 - H72
  2056  2064   1 ;    O35 - H74
  2056  2067   1 ;    O35 - O36
  2056  2068   1 ;    O35 - C48
  2056  2075   1 ;    O35 - O39
  2057  2061   1 ;    C43 - C47
  2057  2063   1 ;    C43 - H73
  2057  2069   1 ;    C43 - H77
  2057  2070   1 ;    C43 - H78
  2057  2071   1 ;    C43 - O37
  2057  2073   1 ;    C43 - O38
  2057  2076   1 ;    C43 - H81
  2058  2060   1 ;    C44 - C46
  2058  2066   1 ;    C44 - H76
  2058  2076   1 ;    C44 - H81
  2058  2078   1 ;    C44 - C49
  2059  2064   1 ;    C45 - H74
  2059  2065   1 ;    C45 - H75
  2059  2067   1 ;    C45 - O36
  2059  2068   1 ;    C45 - C48
  2059  2074   1 ;    C45 - H80
  2059  2077   1 ;    C45 - O40
  2060  2062   1 ;    C46 - H72
  2060  2065   1 ;    C46 - H75
  2060  2072   1 ;    C46 - H79
  2060  2075   1 ;    C46 - O39
  2060  2077   1 ;    C46 - O40
  2061  2062   1 ;    C47 - H72
  2061  2064   1 ;    C47 - H74
  2061  2068   1 ;    C47 - C48
  2061  2074   1 ;    C47 - H80
  2061  2075   1 ;    C47 - O39
  2061  2080   1 ;    C47 - C51
  2061  2081   1 ;    C47 - C52
  2061  2084   1 ;    C47 - H83
  2062  2063   1 ;    H72 - H73
  2062  2066   1 ;    H72 - H76
  2062  2073   1 ;    H72 - O38
  2062  2076   1 ;    H72 - H81
  2063  2065   1 ;    H73 - H75
  2063  2067   1 ;    H73 - O36
  2063  2074   1 ;    H73 - H80
  2063  2075   1 ;    H73 - O39
  2063  2077   1 ;    H73 - O40
  2064  2066   1 ;    H74 - H76
  2064  2069   1 ;    H74 - H77
  2064  2070   1 ;    H74 - H78
  2064  2071   1 ;    H74 - O37
  2065  2073   1 ;    H75 - O38
  2065  2078   1 ;    H75 - C49
  2066  2067   1 ;    H76 - O36
  2066  2068   1 ;    H76 - C48
  2066  2075   1 ;    H76 - O39
  2067  2069   1 ;    O36 - H77
  2067  2070   1 ;    O36 - H78
  2067  2071   1 ;    O36 - O37
  2067  2073   1 ;    O36 - O38
  2067  2078   1 ;    O36 - C49
  2069  2072   1 ;    H77 - H79
  2070  2072   1 ;    H78 - H79
  2073  2075   1 ;    O38 - O39
  2073  2077   1 ;    O38 - O40
  2077  2082   1 ;    O40 - C53
  2077  2085   1 ;    O40 - H84
  2077  2087   1 ;    O40 - H86
  2077  2088   1 ;    O40 - O41
  2077  2092   1 ;    O40 - O43
  2077  2093   1 ;    O40 - C54
  2078  2079   1 ;    C49 - C50
  2078  2086   1 ;    C49 - H85
  2078  2089   1 ;    C49 - H87
  2078  2090   1 ;    C49 - O42
  2078  2094   1 ;    C49 - H89
  2078  2095   1 ;    C49 - H90
  2078  2096   1 ;    C49 - O44
  2079  2085   1 ;    C50 - H84
  2079  2087   1 ;    C50 - H86
  2079  2088   1 ;    C50 - O41
  2079  2091   1 ;    C50 - H88
  2079  2093   1 ;    C50 - C54
  2079  2101   1 ;    C50 - C57
  2079  2102   1 ;    C50 - C58
  2079  2108   1 ;    C50 - H96
  2080  2082   1 ;    C51 - C53
  2080  2083   1 ;    C51 - H82
  2080  2085   1 ;    C51 - H84
  2080  2088   1 ;    C51 - O41
  2080  2097   1 ;    C51 - H91
  2080  2098   1 ;    C51 - O45
  2081  2083   1 ;    C52 - H82
  2081  2087   1 ;    C52 - H86
  2081  2091   1 ;    C52 - H88
  2081  2092   1 ;    C52 - O43
  2081  2093   1 ;    C52 - C54
  2081  2098   1 ;    C52 - O45
  2082  2084   1 ;    C53 - H83
  2082  2089   1 ;    C53 - H87
  2082  2099   1 ;    C53 - C55
  2083  2086   1 ;    H82 - H85
  2083  2090   1 ;    H82 - O42
  2083  2099   1 ;    H82 - C55
  2084  2085   1 ;    H83 - H84
  2084  2087   1 ;    H83 - H86
  2084  2088   1 ;    H83 - O41
  2084  2092   1 ;    H83 - O43
  2084  2093   1 ;    H83 - C54
  2085  2086   1 ;    H84 - H85
  2085  2089   1 ;    H84 - H87
  2085  2090   1 ;    H84 - O42
  2086  2088   1 ;    H85 - O41
  2086  2091   1 ;    H85 - H88
  2086  2092   1 ;    H85 - O43
  2086  2098   1 ;    H85 - O45
  2087  2094   1 ;    H86 - H89
  2087  2095   1 ;    H86 - H90
  2087  2096   1 ;    H86 - O44
  2088  2090   1 ;    O41 - O42
  2090  2092   1 ;    O42 - O43
  2090  2098   1 ;    O42 - O45
  2092  2094   1 ;    O43 - H89
  2092  2095   1 ;    O43 - H90
  2092  2096   1 ;    O43 - O44
  2092  2099   1 ;    O43 - C55
  2094  2097   1 ;    H89 - H91
  2095  2097   1 ;    H90 - H91
  2098  2100   1 ;    O45 - C56
  2098  2104   1 ;    O45 - H92
  2098  2106   1 ;    O45 - H94
  2098  2109   1 ;    O45 - O46
  2098  2110   1 ;    O45 - C60
  2098  2117   1 ;    O45 - O49
  2099  2103   1 ;    C55 - C59
  2099  2105   1 ;    C55 - H93
  2099  2111   1 ;    C55 - H97
  2099  2112   1 ;    C55 - H98
  2099  2113   1 ;    C55 - O47
  2099  2115   1 ;    C55 - O48
  2099  2118   1 ;    C55 - H101
  2100  2102   1 ;    C56 - C58
  2100  2108   1 ;    C56 - H96
  2100  2118   1 ;    C56 - H101
  2100  2120   1 ;    C56 - H102
  2101  2106   1 ;    C57 - H94
  2101  2107   1 ;    C57 - H95
  2101  2109   1 ;    C57 - O46
  2101  2110   1 ;    C57 - C60
  2101  2116   1 ;    C57 - H100
  2101  2119   1 ;    C57 - O50
  2102  2104   1 ;    C58 - H92
  2102  2107   1 ;    C58 - H95
  2102  2114   1 ;    C58 - H99
  2102  2117   1 ;    C58 - O49
  2102  2119   1 ;    C58 - O50
  2103  2104   1 ;    C59 - H92
  2103  2106   1 ;    C59 - H94
  2103  2110   1 ;    C59 - C60
  2103  2116   1 ;    C59 - H100
  2103  2117   1 ;    C59 - O49
  2104  2105   1 ;    H92 - H93
  2104  2108   1 ;    H92 - H96
  2104  2115   1 ;    H92 - O48
  2104  2118   1 ;    H92 - H101
  2105  2107   1 ;    H93 - H95
  2105  2109   1 ;    H93 - O46
  2105  2116   1 ;    H93 - H100
  2105  2117   1 ;    H93 - O49
  2105  2119   1 ;    H93 - O50
  2106  2108   1 ;    H94 - H96
  2106  2111   1 ;    H94 - H97
  2106  2112   1 ;    H94 - H98
  2106  2113   1 ;    H94 - O47
  2107  2115   1 ;    H95 - O48
  2107  2120   1 ;    H95 - H102
  2108  2109   1 ;    H96 - O46
  2108  2110   1 ;    H96 - C60
  2108  2117   1 ;    H96 - O49
  2109  2111   1 ;    O46 - H97
  2109  2112   1 ;    O46 - H98
  2109  2113   1 ;    O46 - O47
  2109  2115   1 ;    O46 - O48
  2109  2120   1 ;    O46 - H102
  2111  2114   1 ;    H97 - H99
  2112  2114   1 ;    H98 - H99
  2115  2117   1 ;    O48 - O49
  2115  2119   1 ;    O48 - O50

[ angles ]
;   ai     aj     ak    funct   theta         cth

     1     2     4   1   1.0980e+02   3.9162e+02 ;     H1 - C1     - C3
     1     2     5   1   1.0980e+02   3.9162e+02 ;     H1 - C1     - C4
     1     2     8   1   1.0758e+02   3.2635e+02 ;     H1 - C1     - H3
     2     4    11   1   1.0956e+02   3.9246e+02 ;     C1 - C3     - H6
     2     4    16   1   1.0797e+02   7.1379e+02 ;     C1 - C3     - O3
     2     4    17   1   1.1151e+02   5.4308e+02 ;     C1 - C3     - C6
     2     5     6   1   1.1151e+02   5.4308e+02 ;     C1 - C4     - C5
     2     5     9   1   1.0956e+02   3.9246e+02 ;     C1 - C4     - H4
     2     5    12   1   1.1019e+02   7.0793e+02 ;     C1 - C4     - O1
     3     6     5   1   1.1151e+02   5.4308e+02 ;     C2 - C5     - C4
     3     6    10   1   1.0956e+02   3.9246e+02 ;     C2 - C5     - H5
     3     6    14   1   1.1019e+02   7.0793e+02 ;     C2 - C5     - O2
     3    16     4   1   1.1248e+02   5.5480e+02 ;     C2 - O3     - C3
     3    22    23   1   1.1248e+02   5.5480e+02 ;     C2 - O5     - C7
     4     2     5   1   1.1151e+02   5.4308e+02 ;     C3 - C1     - C4
     4     2     8   1   1.0980e+02   3.9162e+02 ;     C3 - C1     - H3
     4    17    18   1   1.0956e+02   3.9246e+02 ;     C3 - C6     - H9
     4    17    19   1   1.0956e+02   3.9246e+02 ;     C3 - C6     - H10
     4    17    20   1   1.1019e+02   7.0793e+02 ;     C3 - C6     - O4
     5     2     8   1   1.0980e+02   3.9162e+02 ;     C4 - C1     - H3
     5     6    10   1   1.0956e+02   3.9246e+02 ;     C4 - C5     - H5
     5     6    14   1   1.1019e+02   7.0793e+02 ;     C4 - C5     - O2
     5    12    13   1   1.0726e+02   4.1003e+02 ;     C4 - O1     - H7
     6     3     7   1   1.1022e+02   3.9079e+02 ;     C5 - C2     - H2
     6     3    16   1   1.0797e+02   7.1379e+02 ;     C5 - C2     - O3
     6     3    22   1   1.0797e+02   7.1379e+02 ;     C5 - C2     - O5
     6     5     9   1   1.0956e+02   3.9246e+02 ;     C5 - C4     - H4
     6     5    12   1   1.1019e+02   7.0793e+02 ;     C5 - C4     - O1
     6    14    15   1   1.0726e+02   4.1003e+02 ;     C5 - O2     - H8
     7     3    16   1   1.0958e+02   5.2216e+02 ;     H2 - C2     - O3
     7     3    22   1   1.0958e+02   5.2216e+02 ;     H2 - C2     - O5
     9     5    12   1   1.1026e+02   5.2300e+02 ;     H4 - C4     - O1
    10     6    14   1   1.1026e+02   5.2300e+02 ;     H5 - C5     - O2
    11     4    16   1   1.0978e+02   5.2216e+02 ;     H6 - C3     - O3
    11     4    17   1   1.0956e+02   3.9246e+02 ;     H6 - C3     - C6
    16     3    22   1   1.0829e+02   9.2801e+02 ;     O3 - C2     - O5
    16     4    17   1   1.0797e+02   7.1379e+02 ;     O3 - C3     - C6
    17    20    21   1   1.0726e+02   4.1003e+02 ;     C6 - O4     - H11
    18    17    19   1   1.0846e+02   3.2468e+02 ;     H9 - C6     - H10
    18    17    20   1   1.1026e+02   5.2300e+02 ;     H9 - C6     - O4
    19    17    20   1   1.1026e+02   5.2300e+02 ;    H10 - C6     - O4
    22    23    25   1   1.0797e+02   7.1379e+02 ;     O5 - C7     - C9
    22    23    26   1   1.0797e+02   7.1379e+02 ;     O5 - C7     - C10
    22    23    32   1   1.0978e+02   5.2216e+02 ;     O5 - C7     - H16
    23    25    24   1   1.1151e+02   5.4308e+02 ;     C7 - C9     - C8
    23    25    28   1   1.0956e+02   3.9246e+02 ;     C7 - C9     - H12
    23    25    41   1   1.1019e+02   7.0793e+02 ;     C7 - C9     - O9
    23    26    30   1   1.0956e+02   3.9246e+02 ;     C7 - C10    - H14
    23    26    33   1   1.0797e+02   7.1379e+02 ;     C7 - C10    - O6
    23    26    34   1   1.1151e+02   5.4308e+02 ;     C7 - C10    - C12
    24    25    28   1   1.0956e+02   3.9246e+02 ;     C8 - C9     - H12
    24    25    41   1   1.1019e+02   7.0793e+02 ;     C8 - C9     - O9
    24    27    31   1   1.1022e+02   3.9079e+02 ;     C8 - C11    - H15
    24    27    33   1   1.0797e+02   7.1379e+02 ;     C8 - C11    - O6
    24    27    43   1   1.0797e+02   7.1379e+02 ;     C8 - C11    - O10
    24    39    40   1   1.0726e+02   4.1003e+02 ;     C8 - O8     - H20
    25    23    26   1   1.1151e+02   5.4308e+02 ;     C9 - C7     - C10
    25    23    32   1   1.0956e+02   3.9246e+02 ;     C9 - C7     - H16
    25    24    27   1   1.1151e+02   5.4308e+02 ;     C9 - C8     - C11
    25    24    29   1   1.0956e+02   3.9246e+02 ;     C9 - C8     - H13
    25    24    39   1   1.1019e+02   7.0793e+02 ;     C9 - C8     - O8
    25    41    42   1   1.0726e+02   4.1003e+02 ;     C9 - O9     - H21
    26    23    32   1   1.0956e+02   3.9246e+02 ;    C10 - C7     - H16
    26    33    27   1   1.1248e+02   5.5480e+02 ;    C10 - O6     - C11
    26    34    35   1   1.0956e+02   3.9246e+02 ;    C10 - C12    - H17
    26    34    36   1   1.0956e+02   3.9246e+02 ;    C10 - C12    - H18
    26    34    37   1   1.1019e+02   7.0793e+02 ;    C10 - C12    - O7
    27    24    29   1   1.0956e+02   3.9246e+02 ;    C11 - C8     - H13
    27    24    39   1   1.1019e+02   7.0793e+02 ;    C11 - C8     - O8
    27    43    44   1   1.1248e+02   5.5480e+02 ;    C11 - O10    - C13
    28    25    41   1   1.1026e+02   5.2300e+02 ;    H12 - C9     - O9
    29    24    39   1   1.1026e+02   5.2300e+02 ;    H13 - C8     - O8
    30    26    33   1   1.0978e+02   5.2216e+02 ;    H14 - C10    - O6
    30    26    34   1   1.0956e+02   3.9246e+02 ;    H14 - C10    - C12
    31    27    33   1   1.0958e+02   5.2216e+02 ;    H15 - C11    - O6
    31    27    43   1   1.0958e+02   5.2216e+02 ;    H15 - C11    - O10
    33    26    34   1   1.0797e+02   7.1379e+02 ;     O6 - C10    - C12
    33    27    43   1   1.0829e+02   9.2801e+02 ;     O6 - C11    - O10
    34    37    38   1   1.0726e+02   4.1003e+02 ;    C12 - O7     - H19
    35    34    36   1   1.0846e+02   3.2468e+02 ;    H17 - C12    - H18
    35    34    37   1   1.1026e+02   5.2300e+02 ;    H17 - C12    - O7
    36    34    37   1   1.1026e+02   5.2300e+02 ;    H18 - C12    - O7
    43    44    46   1   1.0797e+02   7.1379e+02 ;    O10 - C13    - C15
    43    44    47   1   1.0797e+02   7.1379e+02 ;    O10 - C13    - C16
    43    44    50   1   1.0978e+02   5.2216e+02 ;    O10 - C13    - H23
    44    46    53   1   1.0956e+02   3.9246e+02 ;    C13 - C15    - H26
    44    46    58   1   1.0797e+02   7.1379e+02 ;    C13 - C15    - O13
    44    46    59   1   1.1151e+02   5.4308e+02 ;    C13 - C15    - C18
    44    47    48   1   1.1151e+02   5.4308e+02 ;    C13 - C16    - C17
    44    47    51   1   1.0956e+02   3.9246e+02 ;    C13 - C16    - H24
    44    47    54   1   1.1019e+02   7.0793e+02 ;    C13 - C16    - O11
    45    48    47   1   1.1151e+02   5.4308e+02 ;    C14 - C17    - C16
    45    48    52   1   1.0956e+02   3.9246e+02 ;    C14 - C17    - H25
    45    48    56   1   1.1019e+02   7.0793e+02 ;    C14 - C17    - O12
    45    58    46   1   1.1248e+02   5.5480e+02 ;    C14 - O13    - C15
    45    64    65   1   1.1248e+02   5.5480e+02 ;    C14 - O15    - C19
    46    44    47   1   1.1151e+02   5.4308e+02 ;    C15 - C13    - C16
    46    44    50   1   1.0956e+02   3.9246e+02 ;    C15 - C13    - H23
    46    59    60   1   1.0956e+02   3.9246e+02 ;    C15 - C18    - H29
    46    59    61   1   1.0956e+02   3.9246e+02 ;    C15 - C18    - H30
    46    59    62   1   1.1019e+02   7.0793e+02 ;    C15 - C18    - O14
    47    44    50   1   1.0956e+02   3.9246e+02 ;    C16 - C13    - H23
    47    48    52   1   1.0956e+02   3.9246e+02 ;    C16 - C17    - H25
    47    48    56   1   1.1019e+02   7.0793e+02 ;    C16 - C17    - O12
    47    54    55   1   1.0726e+02   4.1003e+02 ;    C16 - O11    - H27
    48    45    49   1   1.1022e+02   3.9079e+02 ;    C17 - C14    - H22
    48    45    58   1   1.0797e+02   7.1379e+02 ;    C17 - C14    - O13
    48    45    64   1   1.0797e+02   7.1379e+02 ;    C17 - C14    - O15
    48    47    51   1   1.0956e+02   3.9246e+02 ;    C17 - C16    - H24
    48    47    54   1   1.1019e+02   7.0793e+02 ;    C17 - C16    - O11
    48    56    57   1   1.0726e+02   4.1003e+02 ;    C17 - O12    - H28
    49    45    58   1   1.0958e+02   5.2216e+02 ;    H22 - C14    - O13
    49    45    64   1   1.0958e+02   5.2216e+02 ;    H22 - C14    - O15
    51    47    54   1   1.1026e+02   5.2300e+02 ;    H24 - C16    - O11
    52    48    56   1   1.1026e+02   5.2300e+02 ;    H25 - C17    - O12
    53    46    58   1   1.0978e+02   5.2216e+02 ;    H26 - C15    - O13
    53    46    59   1   1.0956e+02   3.9246e+02 ;    H26 - C15    - C18
    58    45    64   1   1.0829e+02   9.2801e+02 ;    O13 - C14    - O15
    58    46    59   1   1.0797e+02   7.1379e+02 ;    O13 - C15    - C18
    59    62    63   1   1.0726e+02   4.1003e+02 ;    C18 - O14    - H31
    60    59    61   1   1.0846e+02   3.2468e+02 ;    H29 - C18    - H30
    60    59    62   1   1.1026e+02   5.2300e+02 ;    H29 - C18    - O14
    61    59    62   1   1.1026e+02   5.2300e+02 ;    H30 - C18    - O14
    64    65    67   1   1.0797e+02   7.1379e+02 ;    O15 - C19    - C21
    64    65    68   1   1.0797e+02   7.1379e+02 ;    O15 - C19    - C22
    64    65    74   1   1.0978e+02   5.2216e+02 ;    O15 - C19    - H36
    65    67    66   1   1.1151e+02   5.4308e+02 ;    C19 - C21    - C20
    65    67    70   1   1.0956e+02   3.9246e+02 ;    C19 - C21    - H32
    65    67    83   1   1.1019e+02   7.0793e+02 ;    C19 - C21    - O19
    65    68    72   1   1.0956e+02   3.9246e+02 ;    C19 - C22    - H34
    65    68    75   1   1.0797e+02   7.1379e+02 ;    C19 - C22    - O16
    65    68    76   1   1.1151e+02   5.4308e+02 ;    C19 - C22    - C24
    66    67    70   1   1.0956e+02   3.9246e+02 ;    C20 - C21    - H32
    66    67    83   1   1.1019e+02   7.0793e+02 ;    C20 - C21    - O19
    66    69    73   1   1.1022e+02   3.9079e+02 ;    C20 - C23    - H35
    66    69    75   1   1.0797e+02   7.1379e+02 ;    C20 - C23    - O16
    66    69    85   1   1.0797e+02   7.1379e+02 ;    C20 - C23    - O20
    66    81    82   1   1.0726e+02   4.1003e+02 ;    C20 - O18    - H40
    67    65    68   1   1.1151e+02   5.4308e+02 ;    C21 - C19    - C22
    67    65    74   1   1.0956e+02   3.9246e+02 ;    C21 - C19    - H36
    67    66    69   1   1.1151e+02   5.4308e+02 ;    C21 - C20    - C23
    67    66    71   1   1.0956e+02   3.9246e+02 ;    C21 - C20    - H33
    67    66    81   1   1.1019e+02   7.0793e+02 ;    C21 - C20    - O18
    67    83    84   1   1.0726e+02   4.1003e+02 ;    C21 - O19    - H41
    68    65    74   1   1.0956e+02   3.9246e+02 ;    C22 - C19    - H36
    68    75    69   1   1.1248e+02   5.5480e+02 ;    C22 - O16    - C23
    68    76    77   1   1.0956e+02   3.9246e+02 ;    C22 - C24    - H37
    68    76    78   1   1.0956e+02   3.9246e+02 ;    C22 - C24    - H38
    68    76    79   1   1.1019e+02   7.0793e+02 ;    C22 - C24    - O17
    69    66    71   1   1.0956e+02   3.9246e+02 ;    C23 - C20    - H33
    69    66    81   1   1.1019e+02   7.0793e+02 ;    C23 - C20    - O18
    69    85    86   1   1.1248e+02   5.5480e+02 ;    C23 - O20    - C25
    70    67    83   1   1.1026e+02   5.2300e+02 ;    H32 - C21    - O19
    71    66    81   1   1.1026e+02   5.2300e+02 ;    H33 - C20    - O18
    72    68    75   1   1.0978e+02   5.2216e+02 ;    H34 - C22    - O16
    72    68    76   1   1.0956e+02   3.9246e+02 ;    H34 - C22    - C24
    73    69    75   1   1.0958e+02   5.2216e+02 ;    H35 - C23    - O16
    73    69    85   1   1.0958e+02   5.2216e+02 ;    H35 - C23    - O20
    75    68    76   1   1.0797e+02   7.1379e+02 ;    O16 - C22    - C24
    75    69    85   1   1.0829e+02   9.2801e+02 ;    O16 - C23    - O20
    76    79    80   1   1.0726e+02   4.1003e+02 ;    C24 - O17    - H39
    77    76    78   1   1.0846e+02   3.2468e+02 ;    H37 - C24    - H38
    77    76    79   1   1.1026e+02   5.2300e+02 ;    H37 - C24    - O17
    78    76    79   1   1.1026e+02   5.2300e+02 ;    H38 - C24    - O17
    85    86    88   1   1.0797e+02   7.1379e+02 ;    O20 - C25    - C27
    85    86    89   1   1.0797e+02   7.1379e+02 ;    O20 - C25    - C28
    85    86    92   1   1.0978e+02   5.2216e+02 ;    O20 - C25    - H43
    86    88    95   1   1.0956e+02   3.9246e+02 ;    C25 - C27    - H46
    86    88   100   1   1.0797e+02   7.1379e+02 ;    C25 - C27    - O23
    86    88   101   1   1.1151e+02   5.4308e+02 ;    C25 - C27    - C30
    86    89    90   1   1.1151e+02   5.4308e+02 ;    C25 - C28    - C29
    86    89    93   1   1.0956e+02   3.9246e+02 ;    C25 - C28    - H44
    86    89    96   1   1.1019e+02   7.0793e+02 ;    C25 - C28    - O21
    87    90    89   1   1.1151e+02   5.4308e+02 ;    C26 - C29    - C28
    87    90    94   1   1.0956e+02   3.9246e+02 ;    C26 - C29    - H45
    87    90    98   1   1.1019e+02   7.0793e+02 ;    C26 - C29    - O22
    87   100    88   1   1.1248e+02   5.5480e+02 ;    C26 - O23    - C27
    87   106   107   1   1.1248e+02   5.5480e+02 ;    C26 - O25    - C31
    88    86    89   1   1.1151e+02   5.4308e+02 ;    C27 - C25    - C28
    88    86    92   1   1.0956e+02   3.9246e+02 ;    C27 - C25    - H43
    88   101   102   1   1.0956e+02   3.9246e+02 ;    C27 - C30    - H49
    88   101   103   1   1.0956e+02   3.9246e+02 ;    C27 - C30    - H50
    88   101   104   1   1.1019e+02   7.0793e+02 ;    C27 - C30    - O24
    89    86    92   1   1.0956e+02   3.9246e+02 ;    C28 - C25    - H43
    89    90    94   1   1.0956e+02   3.9246e+02 ;    C28 - C29    - H45
    89    90    98   1   1.1019e+02   7.0793e+02 ;    C28 - C29    - O22
    89    96    97   1   1.0726e+02   4.1003e+02 ;    C28 - O21    - H47
    90    87    91   1   1.1022e+02   3.9079e+02 ;    C29 - C26    - H42
    90    87   100   1   1.0797e+02   7.1379e+02 ;    C29 - C26    - O23
    90    87   106   1   1.0797e+02   7.1379e+02 ;    C29 - C26    - O25
    90    89    93   1   1.0956e+02   3.9246e+02 ;    C29 - C28    - H44
    90    89    96   1   1.1019e+02   7.0793e+02 ;    C29 - C28    - O21
    90    98    99   1   1.0726e+02   4.1003e+02 ;    C29 - O22    - H48
    91    87   100   1   1.0958e+02   5.2216e+02 ;    H42 - C26    - O23
    91    87   106   1   1.0958e+02   5.2216e+02 ;    H42 - C26    - O25
    93    89    96   1   1.1026e+02   5.2300e+02 ;    H44 - C28    - O21
    94    90    98   1   1.1026e+02   5.2300e+02 ;    H45 - C29    - O22
    95    88   100   1   1.0978e+02   5.2216e+02 ;    H46 - C27    - O23
    95    88   101   1   1.0956e+02   3.9246e+02 ;    H46 - C27    - C30
   100    87   106   1   1.0829e+02   9.2801e+02 ;    O23 - C26    - O25
   100    88   101   1   1.0797e+02   7.1379e+02 ;    O23 - C27    - C30
   101   104   105   1   1.0726e+02   4.1003e+02 ;    C30 - O24    - H51
   102   101   103   1   1.0846e+02   3.2468e+02 ;    H49 - C30    - H50
   102   101   104   1   1.1026e+02   5.2300e+02 ;    H49 - C30    - O24
   103   101   104   1   1.1026e+02   5.2300e+02 ;    H50 - C30    - O24
   106   107   109   1   1.0797e+02   7.1379e+02 ;    O25 - C31    - C33
   106   107   110   1   1.0797e+02   7.1379e+02 ;    O25 - C31    - C34
   106   107   116   1   1.0978e+02   5.2216e+02 ;    O25 - C31    - H56
   107   109   108   1   1.1151e+02   5.4308e+02 ;    C31 - C33    - C32
   107   109   112   1   1.0956e+02   3.9246e+02 ;    C31 - C33    - H52
   107   109   125   1   1.1019e+02   7.0793e+02 ;    C31 - C33    - O29
   107   110   114   1   1.0956e+02   3.9246e+02 ;    C31 - C34    - H54
   107   110   117   1   1.0797e+02   7.1379e+02 ;    C31 - C34    - O26
   107   110   118   1   1.1151e+02   5.4308e+02 ;    C31 - C34    - C36
   108   109   112   1   1.0956e+02   3.9246e+02 ;    C32 - C33    - H52
   108   109   125   1   1.1019e+02   7.0793e+02 ;    C32 - C33    - O29
   108   111   115   1   1.1022e+02   3.9079e+02 ;    C32 - C35    - H55
   108   111   117   1   1.0797e+02   7.1379e+02 ;    C32 - C35    - O26
   108   111   127   1   1.0797e+02   7.1379e+02 ;    C32 - C35    - O30
   108   123   124   1   1.0726e+02   4.1003e+02 ;    C32 - O28    - H60
   109   107   110   1   1.1151e+02   5.4308e+02 ;    C33 - C31    - C34
   109   107   116   1   1.0956e+02   3.9246e+02 ;    C33 - C31    - H56
   109   108   111   1   1.1151e+02   5.4308e+02 ;    C33 - C32    - C35
   109   108   113   1   1.0956e+02   3.9246e+02 ;    C33 - C32    - H53
   109   108   123   1   1.1019e+02   7.0793e+02 ;    C33 - C32    - O28
   109   125   126   1   1.0726e+02   4.1003e+02 ;    C33 - O29    - H61
   110   107   116   1   1.0956e+02   3.9246e+02 ;    C34 - C31    - H56
   110   117   111   1   1.1248e+02   5.5480e+02 ;    C34 - O26    - C35
   110   118   119   1   1.0956e+02   3.9246e+02 ;    C34 - C36    - H57
   110   118   120   1   1.0956e+02   3.9246e+02 ;    C34 - C36    - H58
   110   118   121   1   1.1019e+02   7.0793e+02 ;    C34 - C36    - O27
   111   108   113   1   1.0956e+02   3.9246e+02 ;    C35 - C32    - H53
   111   108   123   1   1.1019e+02   7.0793e+02 ;    C35 - C32    - O28
   111   127   128   1   1.1248e+02   5.5480e+02 ;    C35 - O30    - C37
   112   109   125   1   1.1026e+02   5.2300e+02 ;    H52 - C33    - O29
   113   108   123   1   1.1026e+02   5.2300e+02 ;    H53 - C32    - O28
   114   110   117   1   1.0978e+02   5.2216e+02 ;    H54 - C34    - O26
   114   110   118   1   1.0956e+02   3.9246e+02 ;    H54 - C34    - C36
   115   111   117   1   1.0958e+02   5.2216e+02 ;    H55 - C35    - O26
   115   111   127   1   1.0958e+02   5.2216e+02 ;    H55 - C35    - O30
   117   110   118   1   1.0797e+02   7.1379e+02 ;    O26 - C34    - C36
   117   111   127   1   1.0829e+02   9.2801e+02 ;    O26 - C35    - O30
   118   121   122   1   1.0726e+02   4.1003e+02 ;    C36 - O27    - H59
   119   118   120   1   1.0846e+02   3.2468e+02 ;    H57 - C36    - H58
   119   118   121   1   1.1026e+02   5.2300e+02 ;    H57 - C36    - O27
   120   118   121   1   1.1026e+02   5.2300e+02 ;    H58 - C36    - O27
   127   128   130   1   1.0797e+02   7.1379e+02 ;    O30 - C37    - C39
   127   128   131   1   1.0797e+02   7.1379e+02 ;    O30 - C37    - C40
   127   128   134   1   1.0978e+02   5.2216e+02 ;    O30 - C37    - H63
   128   130   137   1   1.0956e+02   3.9246e+02 ;    C37 - C39    - H66
   128   130   142   1   1.0797e+02   7.1379e+02 ;    C37 - C39    - O33
   128   130   143   1   1.1151e+02   5.4308e+02 ;    C37 - C39    - C42
   128   131   132   1   1.1151e+02   5.4308e+02 ;    C37 - C40    - C41
   128   131   135   1   1.0956e+02   3.9246e+02 ;    C37 - C40    - H64
   128   131   138   1   1.1019e+02   7.0793e+02 ;    C37 - C40    - O31
   129   132   131   1   1.1151e+02   5.4308e+02 ;    C38 - C41    - C40
   129   132   136   1   1.0956e+02   3.9246e+02 ;    C38 - C41    - H65
   129   132   140   1   1.1019e+02   7.0793e+02 ;    C38 - C41    - O32
   129   142   130   1   1.1248e+02   5.5480e+02 ;    C38 - O33    - C39
   129   148   149   1   1.1248e+02   5.5480e+02 ;    C38 - O35    - C43
   130   128   131   1   1.1151e+02   5.4308e+02 ;    C39 - C37    - C40
   130   128   134   1   1.0956e+02   3.9246e+02 ;    C39 - C37    - H63
   130   143   144   1   1.0956e+02   3.9246e+02 ;    C39 - C42    - H69
   130   143   145   1   1.0956e+02   3.9246e+02 ;    C39 - C42    - H70
   130   143   146   1   1.1019e+02   7.0793e+02 ;    C39 - C42    - O34
   131   128   134   1   1.0956e+02   3.9246e+02 ;    C40 - C37    - H63
   131   132   136   1   1.0956e+02   3.9246e+02 ;    C40 - C41    - H65
   131   132   140   1   1.1019e+02   7.0793e+02 ;    C40 - C41    - O32
   131   138   139   1   1.0726e+02   4.1003e+02 ;    C40 - O31    - H67
   132   129   133   1   1.1022e+02   3.9079e+02 ;    C41 - C38    - H62
   132   129   142   1   1.0797e+02   7.1379e+02 ;    C41 - C38    - O33
   132   129   148   1   1.0797e+02   7.1379e+02 ;    C41 - C38    - O35
   132   131   135   1   1.0956e+02   3.9246e+02 ;    C41 - C40    - H64
   132   131   138   1   1.1019e+02   7.0793e+02 ;    C41 - C40    - O31
   132   140   141   1   1.0726e+02   4.1003e+02 ;    C41 - O32    - H68
   133   129   142   1   1.0958e+02   5.2216e+02 ;    H62 - C38    - O33
   133   129   148   1   1.0958e+02   5.2216e+02 ;    H62 - C38    - O35
   135   131   138   1   1.1026e+02   5.2300e+02 ;    H64 - C40    - O31
   136   132   140   1   1.1026e+02   5.2300e+02 ;    H65 - C41    - O32
   137   130   142   1   1.0978e+02   5.2216e+02 ;    H66 - C39    - O33
   137   130   143   1   1.0956e+02   3.9246e+02 ;    H66 - C39    - C42
   142   129   148   1   1.0829e+02   9.2801e+02 ;    O33 - C38    - O35
   142   130   143   1   1.0797e+02   7.1379e+02 ;    O33 - C39    - C42
   143   146   147   1   1.0726e+02   4.1003e+02 ;    C42 - O34    - H71
   144   143   145   1   1.0846e+02   3.2468e+02 ;    H69 - C42    - H70
   144   143   146   1   1.1026e+02   5.2300e+02 ;    H69 - C42    - O34
   145   143   146   1   1.1026e+02   5.2300e+02 ;    H70 - C42    - O34
   148   149   151   1   1.0797e+02   7.1379e+02 ;    O35 - C43    - C45
   148   149   152   1   1.0797e+02   7.1379e+02 ;    O35 - C43    - C46
   148   149   158   1   1.0978e+02   5.2216e+02 ;    O35 - C43    - H76
   149   151   150   1   1.1151e+02   5.4308e+02 ;    C43 - C45    - C44
   149   151   154   1   1.0956e+02   3.9246e+02 ;    C43 - C45    - H72
   149   151   167   1   1.1019e+02   7.0793e+02 ;    C43 - C45    - O39
   149   152   156   1   1.0956e+02   3.9246e+02 ;    C43 - C46    - H74
   149   152   159   1   1.0797e+02   7.1379e+02 ;    C43 - C46    - O36
   149   152   160   1   1.1151e+02   5.4308e+02 ;    C43 - C46    - C48
   150   151   154   1   1.0956e+02   3.9246e+02 ;    C44 - C45    - H72
   150   151   167   1   1.1019e+02   7.0793e+02 ;    C44 - C45    - O39
   150   153   157   1   1.1022e+02   3.9079e+02 ;    C44 - C47    - H75
   150   153   159   1   1.0797e+02   7.1379e+02 ;    C44 - C47    - O36
   150   153   169   1   1.0797e+02   7.1379e+02 ;    C44 - C47    - O40
   150   165   166   1   1.0726e+02   4.1003e+02 ;    C44 - O38    - H80
   151   149   152   1   1.1151e+02   5.4308e+02 ;    C45 - C43    - C46
   151   149   158   1   1.0956e+02   3.9246e+02 ;    C45 - C43    - H76
   151   150   153   1   1.1151e+02   5.4308e+02 ;    C45 - C44    - C47
   151   150   155   1   1.0956e+02   3.9246e+02 ;    C45 - C44    - H73
   151   150   165   1   1.1019e+02   7.0793e+02 ;    C45 - C44    - O38
   151   167   168   1   1.0726e+02   4.1003e+02 ;    C45 - O39    - H81
   152   149   158   1   1.0956e+02   3.9246e+02 ;    C46 - C43    - H76
   152   159   153   1   1.1248e+02   5.5480e+02 ;    C46 - O36    - C47
   152   160   161   1   1.0956e+02   3.9246e+02 ;    C46 - C48    - H77
   152   160   162   1   1.0956e+02   3.9246e+02 ;    C46 - C48    - H78
   152   160   163   1   1.1019e+02   7.0793e+02 ;    C46 - C48    - O37
   153   150   155   1   1.0956e+02   3.9246e+02 ;    C47 - C44    - H73
   153   150   165   1   1.1019e+02   7.0793e+02 ;    C47 - C44    - O38
   153   169   170   1   1.1248e+02   5.5480e+02 ;    C47 - O40    - C49
   154   151   167   1   1.1026e+02   5.2300e+02 ;    H72 - C45    - O39
   155   150   165   1   1.1026e+02   5.2300e+02 ;    H73 - C44    - O38
   156   152   159   1   1.0978e+02   5.2216e+02 ;    H74 - C46    - O36
   156   152   160   1   1.0956e+02   3.9246e+02 ;    H74 - C46    - C48
   157   153   159   1   1.0958e+02   5.2216e+02 ;    H75 - C47    - O36
   157   153   169   1   1.0958e+02   5.2216e+02 ;    H75 - C47    - O40
   159   152   160   1   1.0797e+02   7.1379e+02 ;    O36 - C46    - C48
   159   153   169   1   1.0829e+02   9.2801e+02 ;    O36 - C47    - O40
   160   163   164   1   1.0726e+02   4.1003e+02 ;    C48 - O37    - H79
   161   160   162   1   1.0846e+02   3.2468e+02 ;    H77 - C48    - H78
   161   160   163   1   1.1026e+02   5.2300e+02 ;    H77 - C48    - O37
   162   160   163   1   1.1026e+02   5.2300e+02 ;    H78 - C48    - O37
   169   170   172   1   1.0797e+02   7.1379e+02 ;    O40 - C49    - C51
   169   170   173   1   1.0797e+02   7.1379e+02 ;    O40 - C49    - C52
   169   170   176   1   1.0978e+02   5.2216e+02 ;    O40 - C49    - H83
   170   172   179   1   1.0956e+02   3.9246e+02 ;    C49 - C51    - H86
   170   172   184   1   1.0797e+02   7.1379e+02 ;    C49 - C51    - O43
   170   172   185   1   1.1151e+02   5.4308e+02 ;    C49 - C51    - C54
   170   173   174   1   1.1151e+02   5.4308e+02 ;    C49 - C52    - C53
   170   173   177   1   1.0956e+02   3.9246e+02 ;    C49 - C52    - H84
   170   173   180   1   1.1019e+02   7.0793e+02 ;    C49 - C52    - O41
   171   174   173   1   1.1151e+02   5.4308e+02 ;    C50 - C53    - C52
   171   174   178   1   1.0956e+02   3.9246e+02 ;    C50 - C53    - H85
   171   174   182   1   1.1019e+02   7.0793e+02 ;    C50 - C53    - O42
   171   184   172   1   1.1248e+02   5.5480e+02 ;    C50 - O43    - C51
   171   190   191   1   1.1248e+02   5.5480e+02 ;    C50 - O45    - C55
   172   170   173   1   1.1151e+02   5.4308e+02 ;    C51 - C49    - C52
   172   170   176   1   1.0956e+02   3.9246e+02 ;    C51 - C49    - H83
   172   185   186   1   1.0956e+02   3.9246e+02 ;    C51 - C54    - H89
   172   185   187   1   1.0956e+02   3.9246e+02 ;    C51 - C54    - H90
   172   185   188   1   1.1019e+02   7.0793e+02 ;    C51 - C54    - O44
   173   170   176   1   1.0956e+02   3.9246e+02 ;    C52 - C49    - H83
   173   174   178   1   1.0956e+02   3.9246e+02 ;    C52 - C53    - H85
   173   174   182   1   1.1019e+02   7.0793e+02 ;    C52 - C53    - O42
   173   180   181   1   1.0726e+02   4.1003e+02 ;    C52 - O41    - H87
   174   171   175   1   1.1022e+02   3.9079e+02 ;    C53 - C50    - H82
   174   171   184   1   1.0797e+02   7.1379e+02 ;    C53 - C50    - O43
   174   171   190   1   1.0797e+02   7.1379e+02 ;    C53 - C50    - O45
   174   173   177   1   1.0956e+02   3.9246e+02 ;    C53 - C52    - H84
   174   173   180   1   1.1019e+02   7.0793e+02 ;    C53 - C52    - O41
   174   182   183   1   1.0726e+02   4.1003e+02 ;    C53 - O42    - H88
   175   171   184   1   1.0958e+02   5.2216e+02 ;    H82 - C50    - O43
   175   171   190   1   1.0958e+02   5.2216e+02 ;    H82 - C50    - O45
   177   173   180   1   1.1026e+02   5.2300e+02 ;    H84 - C52    - O41
   178   174   182   1   1.1026e+02   5.2300e+02 ;    H85 - C53    - O42
   179   172   184   1   1.0978e+02   5.2216e+02 ;    H86 - C51    - O43
   179   172   185   1   1.0956e+02   3.9246e+02 ;    H86 - C51    - C54
   184   171   190   1   1.0829e+02   9.2801e+02 ;    O43 - C50    - O45
   184   172   185   1   1.0797e+02   7.1379e+02 ;    O43 - C51    - C54
   185   188   189   1   1.0726e+02   4.1003e+02 ;    C54 - O44    - H91
   186   185   187   1   1.0846e+02   3.2468e+02 ;    H89 - C54    - H90
   186   185   188   1   1.1026e+02   5.2300e+02 ;    H89 - C54    - O44
   187   185   188   1   1.1026e+02   5.2300e+02 ;    H90 - C54    - O44
   190   191   193   1   1.0797e+02   7.1379e+02 ;    O45 - C55    - C57
   190   191   194   1   1.0797e+02   7.1379e+02 ;    O45 - C55    - C58
   190   191   200   1   1.0978e+02   5.2216e+02 ;    O45 - C55    - H96
   191   193   192   1   1.1151e+02   5.4308e+02 ;    C55 - C57    - C56
   191   193   196   1   1.0956e+02   3.9246e+02 ;    C55 - C57    - H92
   191   193   209   1   1.1019e+02   7.0793e+02 ;    C55 - C57    - O49
   191   194   198   1   1.0956e+02   3.9246e+02 ;    C55 - C58    - H94
   191   194   201   1   1.0797e+02   7.1379e+02 ;    C55 - C58    - O46
   191   194   202   1   1.1151e+02   5.4308e+02 ;    C55 - C58    - C60
   192   193   196   1   1.0956e+02   3.9246e+02 ;    C56 - C57    - H92
   192   193   209   1   1.1019e+02   7.0793e+02 ;    C56 - C57    - O49
   192   195   199   1   1.1022e+02   3.9079e+02 ;    C56 - C59    - H95
   192   195   201   1   1.0797e+02   7.1379e+02 ;    C56 - C59    - O46
   192   195   211   1   1.1019e+02   7.0793e+02 ;    C56 - C59    - O50
   192   207   208   1   1.0726e+02   4.1003e+02 ;    C56 - O48    - H100
   193   191   194   1   1.1151e+02   5.4308e+02 ;    C57 - C55    - C58
   193   191   200   1   1.0956e+02   3.9246e+02 ;    C57 - C55    - H96
   193   192   195   1   1.1151e+02   5.4308e+02 ;    C57 - C56    - C59
   193   192   197   1   1.0956e+02   3.9246e+02 ;    C57 - C56    - H93
   193   192   207   1   1.1019e+02   7.0793e+02 ;    C57 - C56    - O48
   193   209   210   1   1.0726e+02   4.1003e+02 ;    C57 - O49    - H101
   194   191   200   1   1.0956e+02   3.9246e+02 ;    C58 - C55    - H96
   194   201   195   1   1.1248e+02   5.5480e+02 ;    C58 - O46    - C59
   194   202   203   1   1.0956e+02   3.9246e+02 ;    C58 - C60    - H97
   194   202   204   1   1.0956e+02   3.9246e+02 ;    C58 - C60    - H98
   194   202   205   1   1.1019e+02   7.0793e+02 ;    C58 - C60    - O47
   195   192   197   1   1.0956e+02   3.9246e+02 ;    C59 - C56    - H93
   195   192   207   1   1.1019e+02   7.0793e+02 ;    C59 - C56    - O48
   195   211   212   1   1.0726e+02   4.1003e+02 ;    C59 - O50    - H102
   196   193   209   1   1.1026e+02   5.2300e+02 ;    H92 - C57    - O49
   197   192   207   1   1.1026e+02   5.2300e+02 ;    H93 - C56    - O48
   198   194   201   1   1.0978e+02   5.2216e+02 ;    H94 - C58    - O46
   198   194   202   1   1.0956e+02   3.9246e+02 ;    H94 - C58    - C60
   199   195   201   1   1.0958e+02   5.2216e+02 ;    H95 - C59    - O46
   199   195   211   1   1.0943e+02   5.2551e+02 ;    H95 - C59    - O50
   201   194   202   1   1.0797e+02   7.1379e+02 ;    O46 - C58    - C60
   201   195   211   1   1.0938e+02   9.2634e+02 ;    O46 - C59    - O50
   202   205   206   1   1.0726e+02   4.1003e+02 ;    C60 - O47    - H99
   203   202   204   1   1.0846e+02   3.2468e+02 ;    H97 - C60    - H98
   203   202   205   1   1.1026e+02   5.2300e+02 ;    H97 - C60    - O47
   204   202   205   1   1.1026e+02   5.2300e+02 ;    H98 - C60    - O47
   213   214   216   1   1.0980e+02   3.9162e+02 ;     H1 - C1     - C3
   213   214   217   1   1.0980e+02   3.9162e+02 ;     H1 - C1     - C4
   213   214   220   1   1.0758e+02   3.2635e+02 ;     H1 - C1     - H3
   214   216   223   1   1.0956e+02   3.9246e+02 ;     C1 - C3     - H6
   214   216   228   1   1.0797e+02   7.1379e+02 ;     C1 - C3     - O3
   214   216   229   1   1.1151e+02   5.4308e+02 ;     C1 - C3     - C6
   214   217   218   1   1.1151e+02   5.4308e+02 ;     C1 - C4     - C5
   214   217   221   1   1.0956e+02   3.9246e+02 ;     C1 - C4     - H4
   214   217   224   1   1.1019e+02   7.0793e+02 ;     C1 - C4     - O1
   215   218   217   1   1.1151e+02   5.4308e+02 ;     C2 - C5     - C4
   215   218   222   1   1.0956e+02   3.9246e+02 ;     C2 - C5     - H5
   215   218   226   1   1.1019e+02   7.0793e+02 ;     C2 - C5     - O2
   215   228   216   1   1.1248e+02   5.5480e+02 ;     C2 - O3     - C3
   215   234   235   1   1.1248e+02   5.5480e+02 ;     C2 - O5     - C7
   216   214   217   1   1.1151e+02   5.4308e+02 ;     C3 - C1     - C4
   216   214   220   1   1.0980e+02   3.9162e+02 ;     C3 - C1     - H3
   216   229   230   1   1.0956e+02   3.9246e+02 ;     C3 - C6     - H9
   216   229   231   1   1.0956e+02   3.9246e+02 ;     C3 - C6     - H10
   216   229   232   1   1.1019e+02   7.0793e+02 ;     C3 - C6     - O4
   217   214   220   1   1.0980e+02   3.9162e+02 ;     C4 - C1     - H3
   217   218   222   1   1.0956e+02   3.9246e+02 ;     C4 - C5     - H5
   217   218   226   1   1.1019e+02   7.0793e+02 ;     C4 - C5     - O2
   217   224   225   1   1.0726e+02   4.1003e+02 ;     C4 - O1     - H7
   218   215   219   1   1.1022e+02   3.9079e+02 ;     C5 - C2     - H2
   218   215   228   1   1.0797e+02   7.1379e+02 ;     C5 - C2     - O3
   218   215   234   1   1.0797e+02   7.1379e+02 ;     C5 - C2     - O5
   218   217   221   1   1.0956e+02   3.9246e+02 ;     C5 - C4     - H4
   218   217   224   1   1.1019e+02   7.0793e+02 ;     C5 - C4     - O1
   218   226   227   1   1.0726e+02   4.1003e+02 ;     C5 - O2     - H8
   219   215   228   1   1.0958e+02   5.2216e+02 ;     H2 - C2     - O3
   219   215   234   1   1.0958e+02   5.2216e+02 ;     H2 - C2     - O5
   221   217   224   1   1.1026e+02   5.2300e+02 ;     H4 - C4     - O1
   222   218   226   1   1.1026e+02   5.2300e+02 ;     H5 - C5     - O2
   223   216   228   1   1.0978e+02   5.2216e+02 ;     H6 - C3     - O3
   223   216   229   1   1.0956e+02   3.9246e+02 ;     H6 - C3     - C6
   228   215   234   1   1.0829e+02   9.2801e+02 ;     O3 - C2     - O5
   228   216   229   1   1.0797e+02   7.1379e+02 ;     O3 - C3     - C6
   229   232   233   1   1.0726e+02   4.1003e+02 ;     C6 - O4     - H11
   230   229   231   1   1.0846e+02   3.2468e+02 ;     H9 - C6     - H10
   230   229   232   1   1.1026e+02   5.2300e+02 ;     H9 - C6     - O4
   231   229   232   1   1.1026e+02   5.2300e+02 ;    H10 - C6     - O4
   234   235   237   1   1.0797e+02   7.1379e+02 ;     O5 - C7     - C9
   234   235   238   1   1.0797e+02   7.1379e+02 ;     O5 - C7     - C10
   234   235   244   1   1.0978e+02   5.2216e+02 ;     O5 - C7     - H16
   235   237   236   1   1.1151e+02   5.4308e+02 ;     C7 - C9     - C8
   235   237   240   1   1.0956e+02   3.9246e+02 ;     C7 - C9     - H12
   235   237   253   1   1.1019e+02   7.0793e+02 ;     C7 - C9     - O9
   235   238   242   1   1.0956e+02   3.9246e+02 ;     C7 - C10    - H14
   235   238   245   1   1.0797e+02   7.1379e+02 ;     C7 - C10    - O6
   235   238   246   1   1.1151e+02   5.4308e+02 ;     C7 - C10    - C12
   236   237   240   1   1.0956e+02   3.9246e+02 ;     C8 - C9     - H12
   236   237   253   1   1.1019e+02   7.0793e+02 ;     C8 - C9     - O9
   236   239   243   1   1.1022e+02   3.9079e+02 ;     C8 - C11    - H15
   236   239   245   1   1.0797e+02   7.1379e+02 ;     C8 - C11    - O6
   236   239   255   1   1.0797e+02   7.1379e+02 ;     C8 - C11    - O10
   236   251   252   1   1.0726e+02   4.1003e+02 ;     C8 - O8     - H20
   237   235   238   1   1.1151e+02   5.4308e+02 ;     C9 - C7     - C10
   237   235   244   1   1.0956e+02   3.9246e+02 ;     C9 - C7     - H16
   237   236   239   1   1.1151e+02   5.4308e+02 ;     C9 - C8     - C11
   237   236   241   1   1.0956e+02   3.9246e+02 ;     C9 - C8     - H13
   237   236   251   1   1.1019e+02   7.0793e+02 ;     C9 - C8     - O8
   237   253   254   1   1.0726e+02   4.1003e+02 ;     C9 - O9     - H21
   238   235   244   1   1.0956e+02   3.9246e+02 ;    C10 - C7     - H16
   238   245   239   1   1.1248e+02   5.5480e+02 ;    C10 - O6     - C11
   238   246   247   1   1.0956e+02   3.9246e+02 ;    C10 - C12    - H17
   238   246   248   1   1.0956e+02   3.9246e+02 ;    C10 - C12    - H18
   238   246   249   1   1.1019e+02   7.0793e+02 ;    C10 - C12    - O7
   239   236   241   1   1.0956e+02   3.9246e+02 ;    C11 - C8     - H13
   239   236   251   1   1.1019e+02   7.0793e+02 ;    C11 - C8     - O8
   239   255   256   1   1.1248e+02   5.5480e+02 ;    C11 - O10    - C13
   240   237   253   1   1.1026e+02   5.2300e+02 ;    H12 - C9     - O9
   241   236   251   1   1.1026e+02   5.2300e+02 ;    H13 - C8     - O8
   242   238   245   1   1.0978e+02   5.2216e+02 ;    H14 - C10    - O6
   242   238   246   1   1.0956e+02   3.9246e+02 ;    H14 - C10    - C12
   243   239   245   1   1.0958e+02   5.2216e+02 ;    H15 - C11    - O6
   243   239   255   1   1.0958e+02   5.2216e+02 ;    H15 - C11    - O10
   245   238   246   1   1.0797e+02   7.1379e+02 ;     O6 - C10    - C12
   245   239   255   1   1.0829e+02   9.2801e+02 ;     O6 - C11    - O10
   246   249   250   1   1.0726e+02   4.1003e+02 ;    C12 - O7     - H19
   247   246   248   1   1.0846e+02   3.2468e+02 ;    H17 - C12    - H18
   247   246   249   1   1.1026e+02   5.2300e+02 ;    H17 - C12    - O7
   248   246   249   1   1.1026e+02   5.2300e+02 ;    H18 - C12    - O7
   255   256   258   1   1.0797e+02   7.1379e+02 ;    O10 - C13    - C15
   255   256   259   1   1.0797e+02   7.1379e+02 ;    O10 - C13    - C16
   255   256   262   1   1.0978e+02   5.2216e+02 ;    O10 - C13    - H23
   256   258   265   1   1.0956e+02   3.9246e+02 ;    C13 - C15    - H26
   256   258   270   1   1.0797e+02   7.1379e+02 ;    C13 - C15    - O13
   256   258   271   1   1.1151e+02   5.4308e+02 ;    C13 - C15    - C18
   256   259   260   1   1.1151e+02   5.4308e+02 ;    C13 - C16    - C17
   256   259   263   1   1.0956e+02   3.9246e+02 ;    C13 - C16    - H24
   256   259   266   1   1.1019e+02   7.0793e+02 ;    C13 - C16    - O11
   257   260   259   1   1.1151e+02   5.4308e+02 ;    C14 - C17    - C16
   257   260   264   1   1.0956e+02   3.9246e+02 ;    C14 - C17    - H25
   257   260   268   1   1.1019e+02   7.0793e+02 ;    C14 - C17    - O12
   257   270   258   1   1.1248e+02   5.5480e+02 ;    C14 - O13    - C15
   257   276   277   1   1.1248e+02   5.5480e+02 ;    C14 - O15    - C19
   258   256   259   1   1.1151e+02   5.4308e+02 ;    C15 - C13    - C16
   258   256   262   1   1.0956e+02   3.9246e+02 ;    C15 - C13    - H23
   258   271   272   1   1.0956e+02   3.9246e+02 ;    C15 - C18    - H29
   258   271   273   1   1.0956e+02   3.9246e+02 ;    C15 - C18    - H30
   258   271   274   1   1.1019e+02   7.0793e+02 ;    C15 - C18    - O14
   259   256   262   1   1.0956e+02   3.9246e+02 ;    C16 - C13    - H23
   259   260   264   1   1.0956e+02   3.9246e+02 ;    C16 - C17    - H25
   259   260   268   1   1.1019e+02   7.0793e+02 ;    C16 - C17    - O12
   259   266   267   1   1.0726e+02   4.1003e+02 ;    C16 - O11    - H27
   260   257   261   1   1.1022e+02   3.9079e+02 ;    C17 - C14    - H22
   260   257   270   1   1.0797e+02   7.1379e+02 ;    C17 - C14    - O13
   260   257   276   1   1.0797e+02   7.1379e+02 ;    C17 - C14    - O15
   260   259   263   1   1.0956e+02   3.9246e+02 ;    C17 - C16    - H24
   260   259   266   1   1.1019e+02   7.0793e+02 ;    C17 - C16    - O11
   260   268   269   1   1.0726e+02   4.1003e+02 ;    C17 - O12    - H28
   261   257   270   1   1.0958e+02   5.2216e+02 ;    H22 - C14    - O13
   261   257   276   1   1.0958e+02   5.2216e+02 ;    H22 - C14    - O15
   263   259   266   1   1.1026e+02   5.2300e+02 ;    H24 - C16    - O11
   264   260   268   1   1.1026e+02   5.2300e+02 ;    H25 - C17    - O12
   265   258   270   1   1.0978e+02   5.2216e+02 ;    H26 - C15    - O13
   265   258   271   1   1.0956e+02   3.9246e+02 ;    H26 - C15    - C18
   270   257   276   1   1.0829e+02   9.2801e+02 ;    O13 - C14    - O15
   270   258   271   1   1.0797e+02   7.1379e+02 ;    O13 - C15    - C18
   271   274   275   1   1.0726e+02   4.1003e+02 ;    C18 - O14    - H31
   272   271   273   1   1.0846e+02   3.2468e+02 ;    H29 - C18    - H30
   272   271   274   1   1.1026e+02   5.2300e+02 ;    H29 - C18    - O14
   273   271   274   1   1.1026e+02   5.2300e+02 ;    H30 - C18    - O14
   276   277   279   1   1.0797e+02   7.1379e+02 ;    O15 - C19    - C21
   276   277   280   1   1.0797e+02   7.1379e+02 ;    O15 - C19    - C22
   276   277   286   1   1.0978e+02   5.2216e+02 ;    O15 - C19    - H36
   277   279   278   1   1.1151e+02   5.4308e+02 ;    C19 - C21    - C20
   277   279   282   1   1.0956e+02   3.9246e+02 ;    C19 - C21    - H32
   277   279   295   1   1.1019e+02   7.0793e+02 ;    C19 - C21    - O19
   277   280   284   1   1.0956e+02   3.9246e+02 ;    C19 - C22    - H34
   277   280   287   1   1.0797e+02   7.1379e+02 ;    C19 - C22    - O16
   277   280   288   1   1.1151e+02   5.4308e+02 ;    C19 - C22    - C24
   278   279   282   1   1.0956e+02   3.9246e+02 ;    C20 - C21    - H32
   278   279   295   1   1.1019e+02   7.0793e+02 ;    C20 - C21    - O19
   278   281   285   1   1.1022e+02   3.9079e+02 ;    C20 - C23    - H35
   278   281   287   1   1.0797e+02   7.1379e+02 ;    C20 - C23    - O16
   278   281   297   1   1.0797e+02   7.1379e+02 ;    C20 - C23    - O20
   278   293   294   1   1.0726e+02   4.1003e+02 ;    C20 - O18    - H40
   279   277   280   1   1.1151e+02   5.4308e+02 ;    C21 - C19    - C22
   279   277   286   1   1.0956e+02   3.9246e+02 ;    C21 - C19    - H36
   279   278   281   1   1.1151e+02   5.4308e+02 ;    C21 - C20    - C23
   279   278   283   1   1.0956e+02   3.9246e+02 ;    C21 - C20    - H33
   279   278   293   1   1.1019e+02   7.0793e+02 ;    C21 - C20    - O18
   279   295   296   1   1.0726e+02   4.1003e+02 ;    C21 - O19    - H41
   280   277   286   1   1.0956e+02   3.9246e+02 ;    C22 - C19    - H36
   280   287   281   1   1.1248e+02   5.5480e+02 ;    C22 - O16    - C23
   280   288   289   1   1.0956e+02   3.9246e+02 ;    C22 - C24    - H37
   280   288   290   1   1.0956e+02   3.9246e+02 ;    C22 - C24    - H38
   280   288   291   1   1.1019e+02   7.0793e+02 ;    C22 - C24    - O17
   281   278   283   1   1.0956e+02   3.9246e+02 ;    C23 - C20    - H33
   281   278   293   1   1.1019e+02   7.0793e+02 ;    C23 - C20    - O18
   281   297   298   1   1.1248e+02   5.5480e+02 ;    C23 - O20    - C25
   282   279   295   1   1.1026e+02   5.2300e+02 ;    H32 - C21    - O19
   283   278   293   1   1.1026e+02   5.2300e+02 ;    H33 - C20    - O18
   284   280   287   1   1.0978e+02   5.2216e+02 ;    H34 - C22    - O16
   284   280   288   1   1.0956e+02   3.9246e+02 ;    H34 - C22    - C24
   285   281   287   1   1.0958e+02   5.2216e+02 ;    H35 - C23    - O16
   285   281   297   1   1.0958e+02   5.2216e+02 ;    H35 - C23    - O20
   287   280   288   1   1.0797e+02   7.1379e+02 ;    O16 - C22    - C24
   287   281   297   1   1.0829e+02   9.2801e+02 ;    O16 - C23    - O20
   288   291   292   1   1.0726e+02   4.1003e+02 ;    C24 - O17    - H39
   289   288   290   1   1.0846e+02   3.2468e+02 ;    H37 - C24    - H38
   289   288   291   1   1.1026e+02   5.2300e+02 ;    H37 - C24    - O17
   290   288   291   1   1.1026e+02   5.2300e+02 ;    H38 - C24    - O17
   297   298   300   1   1.0797e+02   7.1379e+02 ;    O20 - C25    - C27
   297   298   301   1   1.0797e+02   7.1379e+02 ;    O20 - C25    - C28
   297   298   304   1   1.0978e+02   5.2216e+02 ;    O20 - C25    - H43
   298   300   307   1   1.0956e+02   3.9246e+02 ;    C25 - C27    - H46
   298   300   312   1   1.0797e+02   7.1379e+02 ;    C25 - C27    - O23
   298   300   313   1   1.1151e+02   5.4308e+02 ;    C25 - C27    - C30
   298   301   302   1   1.1151e+02   5.4308e+02 ;    C25 - C28    - C29
   298   301   305   1   1.0956e+02   3.9246e+02 ;    C25 - C28    - H44
   298   301   308   1   1.1019e+02   7.0793e+02 ;    C25 - C28    - O21
   299   302   301   1   1.1151e+02   5.4308e+02 ;    C26 - C29    - C28
   299   302   306   1   1.0956e+02   3.9246e+02 ;    C26 - C29    - H45
   299   302   310   1   1.1019e+02   7.0793e+02 ;    C26 - C29    - O22
   299   312   300   1   1.1248e+02   5.5480e+02 ;    C26 - O23    - C27
   299   318   319   1   1.1248e+02   5.5480e+02 ;    C26 - O25    - C31
   300   298   301   1   1.1151e+02   5.4308e+02 ;    C27 - C25    - C28
   300   298   304   1   1.0956e+02   3.9246e+02 ;    C27 - C25    - H43
   300   313   314   1   1.0956e+02   3.9246e+02 ;    C27 - C30    - H49
   300   313   315   1   1.0956e+02   3.9246e+02 ;    C27 - C30    - H50
   300   313   316   1   1.1019e+02   7.0793e+02 ;    C27 - C30    - O24
   301   298   304   1   1.0956e+02   3.9246e+02 ;    C28 - C25    - H43
   301   302   306   1   1.0956e+02   3.9246e+02 ;    C28 - C29    - H45
   301   302   310   1   1.1019e+02   7.0793e+02 ;    C28 - C29    - O22
   301   308   309   1   1.0726e+02   4.1003e+02 ;    C28 - O21    - H47
   302   299   303   1   1.1022e+02   3.9079e+02 ;    C29 - C26    - H42
   302   299   312   1   1.0797e+02   7.1379e+02 ;    C29 - C26    - O23
   302   299   318   1   1.0797e+02   7.1379e+02 ;    C29 - C26    - O25
   302   301   305   1   1.0956e+02   3.9246e+02 ;    C29 - C28    - H44
   302   301   308   1   1.1019e+02   7.0793e+02 ;    C29 - C28    - O21
   302   310   311   1   1.0726e+02   4.1003e+02 ;    C29 - O22    - H48
   303   299   312   1   1.0958e+02   5.2216e+02 ;    H42 - C26    - O23
   303   299   318   1   1.0958e+02   5.2216e+02 ;    H42 - C26    - O25
   305   301   308   1   1.1026e+02   5.2300e+02 ;    H44 - C28    - O21
   306   302   310   1   1.1026e+02   5.2300e+02 ;    H45 - C29    - O22
   307   300   312   1   1.0978e+02   5.2216e+02 ;    H46 - C27    - O23
   307   300   313   1   1.0956e+02   3.9246e+02 ;    H46 - C27    - C30
   312   299   318   1   1.0829e+02   9.2801e+02 ;    O23 - C26    - O25
   312   300   313   1   1.0797e+02   7.1379e+02 ;    O23 - C27    - C30
   313   316   317   1   1.0726e+02   4.1003e+02 ;    C30 - O24    - H51
   314   313   315   1   1.0846e+02   3.2468e+02 ;    H49 - C30    - H50
   314   313   316   1   1.1026e+02   5.2300e+02 ;    H49 - C30    - O24
   315   313   316   1   1.1026e+02   5.2300e+02 ;    H50 - C30    - O24
   318   319   321   1   1.0797e+02   7.1379e+02 ;    O25 - C31    - C33
   318   319   322   1   1.0797e+02   7.1379e+02 ;    O25 - C31    - C34
   318   319   328   1   1.0978e+02   5.2216e+02 ;    O25 - C31    - H56
   319   321   320   1   1.1151e+02   5.4308e+02 ;    C31 - C33    - C32
   319   321   324   1   1.0956e+02   3.9246e+02 ;    C31 - C33    - H52
   319   321   337   1   1.1019e+02   7.0793e+02 ;    C31 - C33    - O29
   319   322   326   1   1.0956e+02   3.9246e+02 ;    C31 - C34    - H54
   319   322   329   1   1.0797e+02   7.1379e+02 ;    C31 - C34    - O26
   319   322   330   1   1.1151e+02   5.4308e+02 ;    C31 - C34    - C36
   320   321   324   1   1.0956e+02   3.9246e+02 ;    C32 - C33    - H52
   320   321   337   1   1.1019e+02   7.0793e+02 ;    C32 - C33    - O29
   320   323   327   1   1.1022e+02   3.9079e+02 ;    C32 - C35    - H55
   320   323   329   1   1.0797e+02   7.1379e+02 ;    C32 - C35    - O26
   320   323   339   1   1.0797e+02   7.1379e+02 ;    C32 - C35    - O30
   320   335   336   1   1.0726e+02   4.1003e+02 ;    C32 - O28    - H60
   321   319   322   1   1.1151e+02   5.4308e+02 ;    C33 - C31    - C34
   321   319   328   1   1.0956e+02   3.9246e+02 ;    C33 - C31    - H56
   321   320   323   1   1.1151e+02   5.4308e+02 ;    C33 - C32    - C35
   321   320   325   1   1.0956e+02   3.9246e+02 ;    C33 - C32    - H53
   321   320   335   1   1.1019e+02   7.0793e+02 ;    C33 - C32    - O28
   321   337   338   1   1.0726e+02   4.1003e+02 ;    C33 - O29    - H61
   322   319   328   1   1.0956e+02   3.9246e+02 ;    C34 - C31    - H56
   322   329   323   1   1.1248e+02   5.5480e+02 ;    C34 - O26    - C35
   322   330   331   1   1.0956e+02   3.9246e+02 ;    C34 - C36    - H57
   322   330   332   1   1.0956e+02   3.9246e+02 ;    C34 - C36    - H58
   322   330   333   1   1.1019e+02   7.0793e+02 ;    C34 - C36    - O27
   323   320   325   1   1.0956e+02   3.9246e+02 ;    C35 - C32    - H53
   323   320   335   1   1.1019e+02   7.0793e+02 ;    C35 - C32    - O28
   323   339   340   1   1.1248e+02   5.5480e+02 ;    C35 - O30    - C37
   324   321   337   1   1.1026e+02   5.2300e+02 ;    H52 - C33    - O29
   325   320   335   1   1.1026e+02   5.2300e+02 ;    H53 - C32    - O28
   326   322   329   1   1.0978e+02   5.2216e+02 ;    H54 - C34    - O26
   326   322   330   1   1.0956e+02   3.9246e+02 ;    H54 - C34    - C36
   327   323   329   1   1.0958e+02   5.2216e+02 ;    H55 - C35    - O26
   327   323   339   1   1.0958e+02   5.2216e+02 ;    H55 - C35    - O30
   329   322   330   1   1.0797e+02   7.1379e+02 ;    O26 - C34    - C36
   329   323   339   1   1.0829e+02   9.2801e+02 ;    O26 - C35    - O30
   330   333   334   1   1.0726e+02   4.1003e+02 ;    C36 - O27    - H59
   331   330   332   1   1.0846e+02   3.2468e+02 ;    H57 - C36    - H58
   331   330   333   1   1.1026e+02   5.2300e+02 ;    H57 - C36    - O27
   332   330   333   1   1.1026e+02   5.2300e+02 ;    H58 - C36    - O27
   339   340   342   1   1.0797e+02   7.1379e+02 ;    O30 - C37    - C39
   339   340   343   1   1.0797e+02   7.1379e+02 ;    O30 - C37    - C40
   339   340   346   1   1.0978e+02   5.2216e+02 ;    O30 - C37    - H63
   340   342   349   1   1.0956e+02   3.9246e+02 ;    C37 - C39    - H66
   340   342   354   1   1.0797e+02   7.1379e+02 ;    C37 - C39    - O33
   340   342   355   1   1.1151e+02   5.4308e+02 ;    C37 - C39    - C42
   340   343   344   1   1.1151e+02   5.4308e+02 ;    C37 - C40    - C41
   340   343   347   1   1.0956e+02   3.9246e+02 ;    C37 - C40    - H64
   340   343   350   1   1.1019e+02   7.0793e+02 ;    C37 - C40    - O31
   341   344   343   1   1.1151e+02   5.4308e+02 ;    C38 - C41    - C40
   341   344   348   1   1.0956e+02   3.9246e+02 ;    C38 - C41    - H65
   341   344   352   1   1.1019e+02   7.0793e+02 ;    C38 - C41    - O32
   341   354   342   1   1.1248e+02   5.5480e+02 ;    C38 - O33    - C39
   341   360   361   1   1.1248e+02   5.5480e+02 ;    C38 - O35    - C43
   342   340   343   1   1.1151e+02   5.4308e+02 ;    C39 - C37    - C40
   342   340   346   1   1.0956e+02   3.9246e+02 ;    C39 - C37    - H63
   342   355   356   1   1.0956e+02   3.9246e+02 ;    C39 - C42    - H69
   342   355   357   1   1.0956e+02   3.9246e+02 ;    C39 - C42    - H70
   342   355   358   1   1.1019e+02   7.0793e+02 ;    C39 - C42    - O34
   343   340   346   1   1.0956e+02   3.9246e+02 ;    C40 - C37    - H63
   343   344   348   1   1.0956e+02   3.9246e+02 ;    C40 - C41    - H65
   343   344   352   1   1.1019e+02   7.0793e+02 ;    C40 - C41    - O32
   343   350   351   1   1.0726e+02   4.1003e+02 ;    C40 - O31    - H67
   344   341   345   1   1.1022e+02   3.9079e+02 ;    C41 - C38    - H62
   344   341   354   1   1.0797e+02   7.1379e+02 ;    C41 - C38    - O33
   344   341   360   1   1.0797e+02   7.1379e+02 ;    C41 - C38    - O35
   344   343   347   1   1.0956e+02   3.9246e+02 ;    C41 - C40    - H64
   344   343   350   1   1.1019e+02   7.0793e+02 ;    C41 - C40    - O31
   344   352   353   1   1.0726e+02   4.1003e+02 ;    C41 - O32    - H68
   345   341   354   1   1.0958e+02   5.2216e+02 ;    H62 - C38    - O33
   345   341   360   1   1.0958e+02   5.2216e+02 ;    H62 - C38    - O35
   347   343   350   1   1.1026e+02   5.2300e+02 ;    H64 - C40    - O31
   348   344   352   1   1.1026e+02   5.2300e+02 ;    H65 - C41    - O32
   349   342   354   1   1.0978e+02   5.2216e+02 ;    H66 - C39    - O33
   349   342   355   1   1.0956e+02   3.9246e+02 ;    H66 - C39    - C42
   354   341   360   1   1.0829e+02   9.2801e+02 ;    O33 - C38    - O35
   354   342   355   1   1.0797e+02   7.1379e+02 ;    O33 - C39    - C42
   355   358   359   1   1.0726e+02   4.1003e+02 ;    C42 - O34    - H71
   356   355   357   1   1.0846e+02   3.2468e+02 ;    H69 - C42    - H70
   356   355   358   1   1.1026e+02   5.2300e+02 ;    H69 - C42    - O34
   357   355   358   1   1.1026e+02   5.2300e+02 ;    H70 - C42    - O34
   360   361   363   1   1.0797e+02   7.1379e+02 ;    O35 - C43    - C45
   360   361   364   1   1.0797e+02   7.1379e+02 ;    O35 - C43    - C46
   360   361   370   1   1.0978e+02   5.2216e+02 ;    O35 - C43    - H76
   361   363   362   1   1.1151e+02   5.4308e+02 ;    C43 - C45    - C44
   361   363   366   1   1.0956e+02   3.9246e+02 ;    C43 - C45    - H72
   361   363   379   1   1.1019e+02   7.0793e+02 ;    C43 - C45    - O39
   361   364   368   1   1.0956e+02   3.9246e+02 ;    C43 - C46    - H74
   361   364   371   1   1.0797e+02   7.1379e+02 ;    C43 - C46    - O36
   361   364   372   1   1.1151e+02   5.4308e+02 ;    C43 - C46    - C48
   362   363   366   1   1.0956e+02   3.9246e+02 ;    C44 - C45    - H72
   362   363   379   1   1.1019e+02   7.0793e+02 ;    C44 - C45    - O39
   362   365   369   1   1.1022e+02   3.9079e+02 ;    C44 - C47    - H75
   362   365   371   1   1.0797e+02   7.1379e+02 ;    C44 - C47    - O36
   362   365   381   1   1.0797e+02   7.1379e+02 ;    C44 - C47    - O40
   362   377   378   1   1.0726e+02   4.1003e+02 ;    C44 - O38    - H80
   363   361   364   1   1.1151e+02   5.4308e+02 ;    C45 - C43    - C46
   363   361   370   1   1.0956e+02   3.9246e+02 ;    C45 - C43    - H76
   363   362   365   1   1.1151e+02   5.4308e+02 ;    C45 - C44    - C47
   363   362   367   1   1.0956e+02   3.9246e+02 ;    C45 - C44    - H73
   363   362   377   1   1.1019e+02   7.0793e+02 ;    C45 - C44    - O38
   363   379   380   1   1.0726e+02   4.1003e+02 ;    C45 - O39    - H81
   364   361   370   1   1.0956e+02   3.9246e+02 ;    C46 - C43    - H76
   364   371   365   1   1.1248e+02   5.5480e+02 ;    C46 - O36    - C47
   364   372   373   1   1.0956e+02   3.9246e+02 ;    C46 - C48    - H77
   364   372   374   1   1.0956e+02   3.9246e+02 ;    C46 - C48    - H78
   364   372   375   1   1.1019e+02   7.0793e+02 ;    C46 - C48    - O37
   365   362   367   1   1.0956e+02   3.9246e+02 ;    C47 - C44    - H73
   365   362   377   1   1.1019e+02   7.0793e+02 ;    C47 - C44    - O38
   365   381   382   1   1.1248e+02   5.5480e+02 ;    C47 - O40    - C49
   366   363   379   1   1.1026e+02   5.2300e+02 ;    H72 - C45    - O39
   367   362   377   1   1.1026e+02   5.2300e+02 ;    H73 - C44    - O38
   368   364   371   1   1.0978e+02   5.2216e+02 ;    H74 - C46    - O36
   368   364   372   1   1.0956e+02   3.9246e+02 ;    H74 - C46    - C48
   369   365   371   1   1.0958e+02   5.2216e+02 ;    H75 - C47    - O36
   369   365   381   1   1.0958e+02   5.2216e+02 ;    H75 - C47    - O40
   371   364   372   1   1.0797e+02   7.1379e+02 ;    O36 - C46    - C48
   371   365   381   1   1.0829e+02   9.2801e+02 ;    O36 - C47    - O40
   372   375   376   1   1.0726e+02   4.1003e+02 ;    C48 - O37    - H79
   373   372   374   1   1.0846e+02   3.2468e+02 ;    H77 - C48    - H78
   373   372   375   1   1.1026e+02   5.2300e+02 ;    H77 - C48    - O37
   374   372   375   1   1.1026e+02   5.2300e+02 ;    H78 - C48    - O37
   381   382   384   1   1.0797e+02   7.1379e+02 ;    O40 - C49    - C51
   381   382   385   1   1.0797e+02   7.1379e+02 ;    O40 - C49    - C52
   381   382   388   1   1.0978e+02   5.2216e+02 ;    O40 - C49    - H83
   382   384   391   1   1.0956e+02   3.9246e+02 ;    C49 - C51    - H86
   382   384   396   1   1.0797e+02   7.1379e+02 ;    C49 - C51    - O43
   382   384   397   1   1.1151e+02   5.4308e+02 ;    C49 - C51    - C54
   382   385   386   1   1.1151e+02   5.4308e+02 ;    C49 - C52    - C53
   382   385   389   1   1.0956e+02   3.9246e+02 ;    C49 - C52    - H84
   382   385   392   1   1.1019e+02   7.0793e+02 ;    C49 - C52    - O41
   383   386   385   1   1.1151e+02   5.4308e+02 ;    C50 - C53    - C52
   383   386   390   1   1.0956e+02   3.9246e+02 ;    C50 - C53    - H85
   383   386   394   1   1.1019e+02   7.0793e+02 ;    C50 - C53    - O42
   383   396   384   1   1.1248e+02   5.5480e+02 ;    C50 - O43    - C51
   383   402   403   1   1.1248e+02   5.5480e+02 ;    C50 - O45    - C55
   384   382   385   1   1.1151e+02   5.4308e+02 ;    C51 - C49    - C52
   384   382   388   1   1.0956e+02   3.9246e+02 ;    C51 - C49    - H83
   384   397   398   1   1.0956e+02   3.9246e+02 ;    C51 - C54    - H89
   384   397   399   1   1.0956e+02   3.9246e+02 ;    C51 - C54    - H90
   384   397   400   1   1.1019e+02   7.0793e+02 ;    C51 - C54    - O44
   385   382   388   1   1.0956e+02   3.9246e+02 ;    C52 - C49    - H83
   385   386   390   1   1.0956e+02   3.9246e+02 ;    C52 - C53    - H85
   385   386   394   1   1.1019e+02   7.0793e+02 ;    C52 - C53    - O42
   385   392   393   1   1.0726e+02   4.1003e+02 ;    C52 - O41    - H87
   386   383   387   1   1.1022e+02   3.9079e+02 ;    C53 - C50    - H82
   386   383   396   1   1.0797e+02   7.1379e+02 ;    C53 - C50    - O43
   386   383   402   1   1.0797e+02   7.1379e+02 ;    C53 - C50    - O45
   386   385   389   1   1.0956e+02   3.9246e+02 ;    C53 - C52    - H84
   386   385   392   1   1.1019e+02   7.0793e+02 ;    C53 - C52    - O41
   386   394   395   1   1.0726e+02   4.1003e+02 ;    C53 - O42    - H88
   387   383   396   1   1.0958e+02   5.2216e+02 ;    H82 - C50    - O43
   387   383   402   1   1.0958e+02   5.2216e+02 ;    H82 - C50    - O45
   389   385   392   1   1.1026e+02   5.2300e+02 ;    H84 - C52    - O41
   390   386   394   1   1.1026e+02   5.2300e+02 ;    H85 - C53    - O42
   391   384   396   1   1.0978e+02   5.2216e+02 ;    H86 - C51    - O43
   391   384   397   1   1.0956e+02   3.9246e+02 ;    H86 - C51    - C54
   396   383   402   1   1.0829e+02   9.2801e+02 ;    O43 - C50    - O45
   396   384   397   1   1.0797e+02   7.1379e+02 ;    O43 - C51    - C54
   397   400   401   1   1.0726e+02   4.1003e+02 ;    C54 - O44    - H91
   398   397   399   1   1.0846e+02   3.2468e+02 ;    H89 - C54    - H90
   398   397   400   1   1.1026e+02   5.2300e+02 ;    H89 - C54    - O44
   399   397   400   1   1.1026e+02   5.2300e+02 ;    H90 - C54    - O44
   402   403   405   1   1.0797e+02   7.1379e+02 ;    O45 - C55    - C57
   402   403   406   1   1.0797e+02   7.1379e+02 ;    O45 - C55    - C58
   402   403   412   1   1.0978e+02   5.2216e+02 ;    O45 - C55    - H96
   403   405   404   1   1.1151e+02   5.4308e+02 ;    C55 - C57    - C56
   403   405   408   1   1.0956e+02   3.9246e+02 ;    C55 - C57    - H92
   403   405   421   1   1.1019e+02   7.0793e+02 ;    C55 - C57    - O49
   403   406   410   1   1.0956e+02   3.9246e+02 ;    C55 - C58    - H94
   403   406   413   1   1.0797e+02   7.1379e+02 ;    C55 - C58    - O46
   403   406   414   1   1.1151e+02   5.4308e+02 ;    C55 - C58    - C60
   404   405   408   1   1.0956e+02   3.9246e+02 ;    C56 - C57    - H92
   404   405   421   1   1.1019e+02   7.0793e+02 ;    C56 - C57    - O49
   404   407   411   1   1.1022e+02   3.9079e+02 ;    C56 - C59    - H95
   404   407   413   1   1.0797e+02   7.1379e+02 ;    C56 - C59    - O46
   404   407   423   1   1.1019e+02   7.0793e+02 ;    C56 - C59    - O50
   404   419   420   1   1.0726e+02   4.1003e+02 ;    C56 - O48    - H100
   405   403   406   1   1.1151e+02   5.4308e+02 ;    C57 - C55    - C58
   405   403   412   1   1.0956e+02   3.9246e+02 ;    C57 - C55    - H96
   405   404   407   1   1.1151e+02   5.4308e+02 ;    C57 - C56    - C59
   405   404   409   1   1.0956e+02   3.9246e+02 ;    C57 - C56    - H93
   405   404   419   1   1.1019e+02   7.0793e+02 ;    C57 - C56    - O48
   405   421   422   1   1.0726e+02   4.1003e+02 ;    C57 - O49    - H101
   406   403   412   1   1.0956e+02   3.9246e+02 ;    C58 - C55    - H96
   406   413   407   1   1.1248e+02   5.5480e+02 ;    C58 - O46    - C59
   406   414   415   1   1.0956e+02   3.9246e+02 ;    C58 - C60    - H97
   406   414   416   1   1.0956e+02   3.9246e+02 ;    C58 - C60    - H98
   406   414   417   1   1.1019e+02   7.0793e+02 ;    C58 - C60    - O47
   407   404   409   1   1.0956e+02   3.9246e+02 ;    C59 - C56    - H93
   407   404   419   1   1.1019e+02   7.0793e+02 ;    C59 - C56    - O48
   407   423   424   1   1.0726e+02   4.1003e+02 ;    C59 - O50    - H102
   408   405   421   1   1.1026e+02   5.2300e+02 ;    H92 - C57    - O49
   409   404   419   1   1.1026e+02   5.2300e+02 ;    H93 - C56    - O48
   410   406   413   1   1.0978e+02   5.2216e+02 ;    H94 - C58    - O46
   410   406   414   1   1.0956e+02   3.9246e+02 ;    H94 - C58    - C60
   411   407   413   1   1.0958e+02   5.2216e+02 ;    H95 - C59    - O46
   411   407   423   1   1.0943e+02   5.2551e+02 ;    H95 - C59    - O50
   413   406   414   1   1.0797e+02   7.1379e+02 ;    O46 - C58    - C60
   413   407   423   1   1.0938e+02   9.2634e+02 ;    O46 - C59    - O50
   414   417   418   1   1.0726e+02   4.1003e+02 ;    C60 - O47    - H99
   415   414   416   1   1.0846e+02   3.2468e+02 ;    H97 - C60    - H98
   415   414   417   1   1.1026e+02   5.2300e+02 ;    H97 - C60    - O47
   416   414   417   1   1.1026e+02   5.2300e+02 ;    H98 - C60    - O47
   425   426   428   1   1.0980e+02   3.9162e+02 ;     H1 - C1     - C3
   425   426   429   1   1.0980e+02   3.9162e+02 ;     H1 - C1     - C4
   425   426   432   1   1.0758e+02   3.2635e+02 ;     H1 - C1     - H3
   426   428   435   1   1.0956e+02   3.9246e+02 ;     C1 - C3     - H6
   426   428   440   1   1.0797e+02   7.1379e+02 ;     C1 - C3     - O3
   426   428   441   1   1.1151e+02   5.4308e+02 ;     C1 - C3     - C6
   426   429   430   1   1.1151e+02   5.4308e+02 ;     C1 - C4     - C5
   426   429   433   1   1.0956e+02   3.9246e+02 ;     C1 - C4     - H4
   426   429   436   1   1.1019e+02   7.0793e+02 ;     C1 - C4     - O1
   427   430   429   1   1.1151e+02   5.4308e+02 ;     C2 - C5     - C4
   427   430   434   1   1.0956e+02   3.9246e+02 ;     C2 - C5     - H5
   427   430   438   1   1.1019e+02   7.0793e+02 ;     C2 - C5     - O2
   427   440   428   1   1.1248e+02   5.5480e+02 ;     C2 - O3     - C3
   427   446   447   1   1.1248e+02   5.5480e+02 ;     C2 - O5     - C7
   428   426   429   1   1.1151e+02   5.4308e+02 ;     C3 - C1     - C4
   428   426   432   1   1.0980e+02   3.9162e+02 ;     C3 - C1     - H3
   428   441   442   1   1.0956e+02   3.9246e+02 ;     C3 - C6     - H9
   428   441   443   1   1.0956e+02   3.9246e+02 ;     C3 - C6     - H10
   428   441   444   1   1.1019e+02   7.0793e+02 ;     C3 - C6     - O4
   429   426   432   1   1.0980e+02   3.9162e+02 ;     C4 - C1     - H3
   429   430   434   1   1.0956e+02   3.9246e+02 ;     C4 - C5     - H5
   429   430   438   1   1.1019e+02   7.0793e+02 ;     C4 - C5     - O2
   429   436   437   1   1.0726e+02   4.1003e+02 ;     C4 - O1     - H7
   430   427   431   1   1.1022e+02   3.9079e+02 ;     C5 - C2     - H2
   430   427   440   1   1.0797e+02   7.1379e+02 ;     C5 - C2     - O3
   430   427   446   1   1.0797e+02   7.1379e+02 ;     C5 - C2     - O5
   430   429   433   1   1.0956e+02   3.9246e+02 ;     C5 - C4     - H4
   430   429   436   1   1.1019e+02   7.0793e+02 ;     C5 - C4     - O1
   430   438   439   1   1.0726e+02   4.1003e+02 ;     C5 - O2     - H8
   431   427   440   1   1.0958e+02   5.2216e+02 ;     H2 - C2     - O3
   431   427   446   1   1.0958e+02   5.2216e+02 ;     H2 - C2     - O5
   433   429   436   1   1.1026e+02   5.2300e+02 ;     H4 - C4     - O1
   434   430   438   1   1.1026e+02   5.2300e+02 ;     H5 - C5     - O2
   435   428   440   1   1.0978e+02   5.2216e+02 ;     H6 - C3     - O3
   435   428   441   1   1.0956e+02   3.9246e+02 ;     H6 - C3     - C6
   440   427   446   1   1.0829e+02   9.2801e+02 ;     O3 - C2     - O5
   440   428   441   1   1.0797e+02   7.1379e+02 ;     O3 - C3     - C6
   441   444   445   1   1.0726e+02   4.1003e+02 ;     C6 - O4     - H11
   442   441   443   1   1.0846e+02   3.2468e+02 ;     H9 - C6     - H10
   442   441   444   1   1.1026e+02   5.2300e+02 ;     H9 - C6     - O4
   443   441   444   1   1.1026e+02   5.2300e+02 ;    H10 - C6     - O4
   446   447   449   1   1.0797e+02   7.1379e+02 ;     O5 - C7     - C9
   446   447   450   1   1.0797e+02   7.1379e+02 ;     O5 - C7     - C10
   446   447   456   1   1.0978e+02   5.2216e+02 ;     O5 - C7     - H16
   447   449   448   1   1.1151e+02   5.4308e+02 ;     C7 - C9     - C8
   447   449   452   1   1.0956e+02   3.9246e+02 ;     C7 - C9     - H12
   447   449   465   1   1.1019e+02   7.0793e+02 ;     C7 - C9     - O9
   447   450   454   1   1.0956e+02   3.9246e+02 ;     C7 - C10    - H14
   447   450   457   1   1.0797e+02   7.1379e+02 ;     C7 - C10    - O6
   447   450   458   1   1.1151e+02   5.4308e+02 ;     C7 - C10    - C12
   448   449   452   1   1.0956e+02   3.9246e+02 ;     C8 - C9     - H12
   448   449   465   1   1.1019e+02   7.0793e+02 ;     C8 - C9     - O9
   448   451   455   1   1.1022e+02   3.9079e+02 ;     C8 - C11    - H15
   448   451   457   1   1.0797e+02   7.1379e+02 ;     C8 - C11    - O6
   448   451   467   1   1.0797e+02   7.1379e+02 ;     C8 - C11    - O10
   448   463   464   1   1.0726e+02   4.1003e+02 ;     C8 - O8     - H20
   449   447   450   1   1.1151e+02   5.4308e+02 ;     C9 - C7     - C10
   449   447   456   1   1.0956e+02   3.9246e+02 ;     C9 - C7     - H16
   449   448   451   1   1.1151e+02   5.4308e+02 ;     C9 - C8     - C11
   449   448   453   1   1.0956e+02   3.9246e+02 ;     C9 - C8     - H13
   449   448   463   1   1.1019e+02   7.0793e+02 ;     C9 - C8     - O8
   449   465   466   1   1.0726e+02   4.1003e+02 ;     C9 - O9     - H21
   450   447   456   1   1.0956e+02   3.9246e+02 ;    C10 - C7     - H16
   450   457   451   1   1.1248e+02   5.5480e+02 ;    C10 - O6     - C11
   450   458   459   1   1.0956e+02   3.9246e+02 ;    C10 - C12    - H17
   450   458   460   1   1.0956e+02   3.9246e+02 ;    C10 - C12    - H18
   450   458   461   1   1.1019e+02   7.0793e+02 ;    C10 - C12    - O7
   451   448   453   1   1.0956e+02   3.9246e+02 ;    C11 - C8     - H13
   451   448   463   1   1.1019e+02   7.0793e+02 ;    C11 - C8     - O8
   451   467   468   1   1.1248e+02   5.5480e+02 ;    C11 - O10    - C13
   452   449   465   1   1.1026e+02   5.2300e+02 ;    H12 - C9     - O9
   453   448   463   1   1.1026e+02   5.2300e+02 ;    H13 - C8     - O8
   454   450   457   1   1.0978e+02   5.2216e+02 ;    H14 - C10    - O6
   454   450   458   1   1.0956e+02   3.9246e+02 ;    H14 - C10    - C12
   455   451   457   1   1.0958e+02   5.2216e+02 ;    H15 - C11    - O6
   455   451   467   1   1.0958e+02   5.2216e+02 ;    H15 - C11    - O10
   457   450   458   1   1.0797e+02   7.1379e+02 ;     O6 - C10    - C12
   457   451   467   1   1.0829e+02   9.2801e+02 ;     O6 - C11    - O10
   458   461   462   1   1.0726e+02   4.1003e+02 ;    C12 - O7     - H19
   459   458   460   1   1.0846e+02   3.2468e+02 ;    H17 - C12    - H18
   459   458   461   1   1.1026e+02   5.2300e+02 ;    H17 - C12    - O7
   460   458   461   1   1.1026e+02   5.2300e+02 ;    H18 - C12    - O7
   467   468   470   1   1.0797e+02   7.1379e+02 ;    O10 - C13    - C15
   467   468   471   1   1.0797e+02   7.1379e+02 ;    O10 - C13    - C16
   467   468   474   1   1.0978e+02   5.2216e+02 ;    O10 - C13    - H23
   468   470   477   1   1.0956e+02   3.9246e+02 ;    C13 - C15    - H26
   468   470   482   1   1.0797e+02   7.1379e+02 ;    C13 - C15    - O13
   468   470   483   1   1.1151e+02   5.4308e+02 ;    C13 - C15    - C18
   468   471   472   1   1.1151e+02   5.4308e+02 ;    C13 - C16    - C17
   468   471   475   1   1.0956e+02   3.9246e+02 ;    C13 - C16    - H24
   468   471   478   1   1.1019e+02   7.0793e+02 ;    C13 - C16    - O11
   469   472   471   1   1.1151e+02   5.4308e+02 ;    C14 - C17    - C16
   469   472   476   1   1.0956e+02   3.9246e+02 ;    C14 - C17    - H25
   469   472   480   1   1.1019e+02   7.0793e+02 ;    C14 - C17    - O12
   469   482   470   1   1.1248e+02   5.5480e+02 ;    C14 - O13    - C15
   469   488   489   1   1.1248e+02   5.5480e+02 ;    C14 - O15    - C19
   470   468   471   1   1.1151e+02   5.4308e+02 ;    C15 - C13    - C16
   470   468   474   1   1.0956e+02   3.9246e+02 ;    C15 - C13    - H23
   470   483   484   1   1.0956e+02   3.9246e+02 ;    C15 - C18    - H29
   470   483   485   1   1.0956e+02   3.9246e+02 ;    C15 - C18    - H30
   470   483   486   1   1.1019e+02   7.0793e+02 ;    C15 - C18    - O14
   471   468   474   1   1.0956e+02   3.9246e+02 ;    C16 - C13    - H23
   471   472   476   1   1.0956e+02   3.9246e+02 ;    C16 - C17    - H25
   471   472   480   1   1.1019e+02   7.0793e+02 ;    C16 - C17    - O12
   471   478   479   1   1.0726e+02   4.1003e+02 ;    C16 - O11    - H27
   472   469   473   1   1.1022e+02   3.9079e+02 ;    C17 - C14    - H22
   472   469   482   1   1.0797e+02   7.1379e+02 ;    C17 - C14    - O13
   472   469   488   1   1.0797e+02   7.1379e+02 ;    C17 - C14    - O15
   472   471   475   1   1.0956e+02   3.9246e+02 ;    C17 - C16    - H24
   472   471   478   1   1.1019e+02   7.0793e+02 ;    C17 - C16    - O11
   472   480   481   1   1.0726e+02   4.1003e+02 ;    C17 - O12    - H28
   473   469   482   1   1.0958e+02   5.2216e+02 ;    H22 - C14    - O13
   473   469   488   1   1.0958e+02   5.2216e+02 ;    H22 - C14    - O15
   475   471   478   1   1.1026e+02   5.2300e+02 ;    H24 - C16    - O11
   476   472   480   1   1.1026e+02   5.2300e+02 ;    H25 - C17    - O12
   477   470   482   1   1.0978e+02   5.2216e+02 ;    H26 - C15    - O13
   477   470   483   1   1.0956e+02   3.9246e+02 ;    H26 - C15    - C18
   482   469   488   1   1.0829e+02   9.2801e+02 ;    O13 - C14    - O15
   482   470   483   1   1.0797e+02   7.1379e+02 ;    O13 - C15    - C18
   483   486   487   1   1.0726e+02   4.1003e+02 ;    C18 - O14    - H31
   484   483   485   1   1.0846e+02   3.2468e+02 ;    H29 - C18    - H30
   484   483   486   1   1.1026e+02   5.2300e+02 ;    H29 - C18    - O14
   485   483   486   1   1.1026e+02   5.2300e+02 ;    H30 - C18    - O14
   488   489   491   1   1.0797e+02   7.1379e+02 ;    O15 - C19    - C21
   488   489   492   1   1.0797e+02   7.1379e+02 ;    O15 - C19    - C22
   488   489   498   1   1.0978e+02   5.2216e+02 ;    O15 - C19    - H36
   489   491   490   1   1.1151e+02   5.4308e+02 ;    C19 - C21    - C20
   489   491   494   1   1.0956e+02   3.9246e+02 ;    C19 - C21    - H32
   489   491   507   1   1.1019e+02   7.0793e+02 ;    C19 - C21    - O19
   489   492   496   1   1.0956e+02   3.9246e+02 ;    C19 - C22    - H34
   489   492   499   1   1.0797e+02   7.1379e+02 ;    C19 - C22    - O16
   489   492   500   1   1.1151e+02   5.4308e+02 ;    C19 - C22    - C24
   490   491   494   1   1.0956e+02   3.9246e+02 ;    C20 - C21    - H32
   490   491   507   1   1.1019e+02   7.0793e+02 ;    C20 - C21    - O19
   490   493   497   1   1.1022e+02   3.9079e+02 ;    C20 - C23    - H35
   490   493   499   1   1.0797e+02   7.1379e+02 ;    C20 - C23    - O16
   490   493   509   1   1.0797e+02   7.1379e+02 ;    C20 - C23    - O20
   490   505   506   1   1.0726e+02   4.1003e+02 ;    C20 - O18    - H40
   491   489   492   1   1.1151e+02   5.4308e+02 ;    C21 - C19    - C22
   491   489   498   1   1.0956e+02   3.9246e+02 ;    C21 - C19    - H36
   491   490   493   1   1.1151e+02   5.4308e+02 ;    C21 - C20    - C23
   491   490   495   1   1.0956e+02   3.9246e+02 ;    C21 - C20    - H33
   491   490   505   1   1.1019e+02   7.0793e+02 ;    C21 - C20    - O18
   491   507   508   1   1.0726e+02   4.1003e+02 ;    C21 - O19    - H41
   492   489   498   1   1.0956e+02   3.9246e+02 ;    C22 - C19    - H36
   492   499   493   1   1.1248e+02   5.5480e+02 ;    C22 - O16    - C23
   492   500   501   1   1.0956e+02   3.9246e+02 ;    C22 - C24    - H37
   492   500   502   1   1.0956e+02   3.9246e+02 ;    C22 - C24    - H38
   492   500   503   1   1.1019e+02   7.0793e+02 ;    C22 - C24    - O17
   493   490   495   1   1.0956e+02   3.9246e+02 ;    C23 - C20    - H33
   493   490   505   1   1.1019e+02   7.0793e+02 ;    C23 - C20    - O18
   493   509   510   1   1.1248e+02   5.5480e+02 ;    C23 - O20    - C25
   494   491   507   1   1.1026e+02   5.2300e+02 ;    H32 - C21    - O19
   495   490   505   1   1.1026e+02   5.2300e+02 ;    H33 - C20    - O18
   496   492   499   1   1.0978e+02   5.2216e+02 ;    H34 - C22    - O16
   496   492   500   1   1.0956e+02   3.9246e+02 ;    H34 - C22    - C24
   497   493   499   1   1.0958e+02   5.2216e+02 ;    H35 - C23    - O16
   497   493   509   1   1.0958e+02   5.2216e+02 ;    H35 - C23    - O20
   499   492   500   1   1.0797e+02   7.1379e+02 ;    O16 - C22    - C24
   499   493   509   1   1.0829e+02   9.2801e+02 ;    O16 - C23    - O20
   500   503   504   1   1.0726e+02   4.1003e+02 ;    C24 - O17    - H39
   501   500   502   1   1.0846e+02   3.2468e+02 ;    H37 - C24    - H38
   501   500   503   1   1.1026e+02   5.2300e+02 ;    H37 - C24    - O17
   502   500   503   1   1.1026e+02   5.2300e+02 ;    H38 - C24    - O17
   509   510   512   1   1.0797e+02   7.1379e+02 ;    O20 - C25    - C27
   509   510   513   1   1.0797e+02   7.1379e+02 ;    O20 - C25    - C28
   509   510   516   1   1.0978e+02   5.2216e+02 ;    O20 - C25    - H43
   510   512   519   1   1.0956e+02   3.9246e+02 ;    C25 - C27    - H46
   510   512   524   1   1.0797e+02   7.1379e+02 ;    C25 - C27    - O23
   510   512   525   1   1.1151e+02   5.4308e+02 ;    C25 - C27    - C30
   510   513   514   1   1.1151e+02   5.4308e+02 ;    C25 - C28    - C29
   510   513   517   1   1.0956e+02   3.9246e+02 ;    C25 - C28    - H44
   510   513   520   1   1.1019e+02   7.0793e+02 ;    C25 - C28    - O21
   511   514   513   1   1.1151e+02   5.4308e+02 ;    C26 - C29    - C28
   511   514   518   1   1.0956e+02   3.9246e+02 ;    C26 - C29    - H45
   511   514   522   1   1.1019e+02   7.0793e+02 ;    C26 - C29    - O22
   511   524   512   1   1.1248e+02   5.5480e+02 ;    C26 - O23    - C27
   511   530   531   1   1.1248e+02   5.5480e+02 ;    C26 - O25    - C31
   512   510   513   1   1.1151e+02   5.4308e+02 ;    C27 - C25    - C28
   512   510   516   1   1.0956e+02   3.9246e+02 ;    C27 - C25    - H43
   512   525   526   1   1.0956e+02   3.9246e+02 ;    C27 - C30    - H49
   512   525   527   1   1.0956e+02   3.9246e+02 ;    C27 - C30    - H50
   512   525   528   1   1.1019e+02   7.0793e+02 ;    C27 - C30    - O24
   513   510   516   1   1.0956e+02   3.9246e+02 ;    C28 - C25    - H43
   513   514   518   1   1.0956e+02   3.9246e+02 ;    C28 - C29    - H45
   513   514   522   1   1.1019e+02   7.0793e+02 ;    C28 - C29    - O22
   513   520   521   1   1.0726e+02   4.1003e+02 ;    C28 - O21    - H47
   514   511   515   1   1.1022e+02   3.9079e+02 ;    C29 - C26    - H42
   514   511   524   1   1.0797e+02   7.1379e+02 ;    C29 - C26    - O23
   514   511   530   1   1.0797e+02   7.1379e+02 ;    C29 - C26    - O25
   514   513   517   1   1.0956e+02   3.9246e+02 ;    C29 - C28    - H44
   514   513   520   1   1.1019e+02   7.0793e+02 ;    C29 - C28    - O21
   514   522   523   1   1.0726e+02   4.1003e+02 ;    C29 - O22    - H48
   515   511   524   1   1.0958e+02   5.2216e+02 ;    H42 - C26    - O23
   515   511   530   1   1.0958e+02   5.2216e+02 ;    H42 - C26    - O25
   517   513   520   1   1.1026e+02   5.2300e+02 ;    H44 - C28    - O21
   518   514   522   1   1.1026e+02   5.2300e+02 ;    H45 - C29    - O22
   519   512   524   1   1.0978e+02   5.2216e+02 ;    H46 - C27    - O23
   519   512   525   1   1.0956e+02   3.9246e+02 ;    H46 - C27    - C30
   524   511   530   1   1.0829e+02   9.2801e+02 ;    O23 - C26    - O25
   524   512   525   1   1.0797e+02   7.1379e+02 ;    O23 - C27    - C30
   525   528   529   1   1.0726e+02   4.1003e+02 ;    C30 - O24    - H51
   526   525   527   1   1.0846e+02   3.2468e+02 ;    H49 - C30    - H50
   526   525   528   1   1.1026e+02   5.2300e+02 ;    H49 - C30    - O24
   527   525   528   1   1.1026e+02   5.2300e+02 ;    H50 - C30    - O24
   530   531   533   1   1.0797e+02   7.1379e+02 ;    O25 - C31    - C33
   530   531   534   1   1.0797e+02   7.1379e+02 ;    O25 - C31    - C34
   530   531   540   1   1.0978e+02   5.2216e+02 ;    O25 - C31    - H56
   531   533   532   1   1.1151e+02   5.4308e+02 ;    C31 - C33    - C32
   531   533   536   1   1.0956e+02   3.9246e+02 ;    C31 - C33    - H52
   531   533   549   1   1.1019e+02   7.0793e+02 ;    C31 - C33    - O29
   531   534   538   1   1.0956e+02   3.9246e+02 ;    C31 - C34    - H54
   531   534   541   1   1.0797e+02   7.1379e+02 ;    C31 - C34    - O26
   531   534   542   1   1.1151e+02   5.4308e+02 ;    C31 - C34    - C36
   532   533   536   1   1.0956e+02   3.9246e+02 ;    C32 - C33    - H52
   532   533   549   1   1.1019e+02   7.0793e+02 ;    C32 - C33    - O29
   532   535   539   1   1.1022e+02   3.9079e+02 ;    C32 - C35    - H55
   532   535   541   1   1.0797e+02   7.1379e+02 ;    C32 - C35    - O26
   532   535   551   1   1.0797e+02   7.1379e+02 ;    C32 - C35    - O30
   532   547   548   1   1.0726e+02   4.1003e+02 ;    C32 - O28    - H60
   533   531   534   1   1.1151e+02   5.4308e+02 ;    C33 - C31    - C34
   533   531   540   1   1.0956e+02   3.9246e+02 ;    C33 - C31    - H56
   533   532   535   1   1.1151e+02   5.4308e+02 ;    C33 - C32    - C35
   533   532   537   1   1.0956e+02   3.9246e+02 ;    C33 - C32    - H53
   533   532   547   1   1.1019e+02   7.0793e+02 ;    C33 - C32    - O28
   533   549   550   1   1.0726e+02   4.1003e+02 ;    C33 - O29    - H61
   534   531   540   1   1.0956e+02   3.9246e+02 ;    C34 - C31    - H56
   534   541   535   1   1.1248e+02   5.5480e+02 ;    C34 - O26    - C35
   534   542   543   1   1.0956e+02   3.9246e+02 ;    C34 - C36    - H57
   534   542   544   1   1.0956e+02   3.9246e+02 ;    C34 - C36    - H58
   534   542   545   1   1.1019e+02   7.0793e+02 ;    C34 - C36    - O27
   535   532   537   1   1.0956e+02   3.9246e+02 ;    C35 - C32    - H53
   535   532   547   1   1.1019e+02   7.0793e+02 ;    C35 - C32    - O28
   535   551   552   1   1.1248e+02   5.5480e+02 ;    C35 - O30    - C37
   536   533   549   1   1.1026e+02   5.2300e+02 ;    H52 - C33    - O29
   537   532   547   1   1.1026e+02   5.2300e+02 ;    H53 - C32    - O28
   538   534   541   1   1.0978e+02   5.2216e+02 ;    H54 - C34    - O26
   538   534   542   1   1.0956e+02   3.9246e+02 ;    H54 - C34    - C36
   539   535   541   1   1.0958e+02   5.2216e+02 ;    H55 - C35    - O26
   539   535   551   1   1.0958e+02   5.2216e+02 ;    H55 - C35    - O30
   541   534   542   1   1.0797e+02   7.1379e+02 ;    O26 - C34    - C36
   541   535   551   1   1.0829e+02   9.2801e+02 ;    O26 - C35    - O30
   542   545   546   1   1.0726e+02   4.1003e+02 ;    C36 - O27    - H59
   543   542   544   1   1.0846e+02   3.2468e+02 ;    H57 - C36    - H58
   543   542   545   1   1.1026e+02   5.2300e+02 ;    H57 - C36    - O27
   544   542   545   1   1.1026e+02   5.2300e+02 ;    H58 - C36    - O27
   551   552   554   1   1.0797e+02   7.1379e+02 ;    O30 - C37    - C39
   551   552   555   1   1.0797e+02   7.1379e+02 ;    O30 - C37    - C40
   551   552   558   1   1.0978e+02   5.2216e+02 ;    O30 - C37    - H63
   552   554   561   1   1.0956e+02   3.9246e+02 ;    C37 - C39    - H66
   552   554   566   1   1.0797e+02   7.1379e+02 ;    C37 - C39    - O33
   552   554   567   1   1.1151e+02   5.4308e+02 ;    C37 - C39    - C42
   552   555   556   1   1.1151e+02   5.4308e+02 ;    C37 - C40    - C41
   552   555   559   1   1.0956e+02   3.9246e+02 ;    C37 - C40    - H64
   552   555   562   1   1.1019e+02   7.0793e+02 ;    C37 - C40    - O31
   553   556   555   1   1.1151e+02   5.4308e+02 ;    C38 - C41    - C40
   553   556   560   1   1.0956e+02   3.9246e+02 ;    C38 - C41    - H65
   553   556   564   1   1.1019e+02   7.0793e+02 ;    C38 - C41    - O32
   553   566   554   1   1.1248e+02   5.5480e+02 ;    C38 - O33    - C39
   553   572   573   1   1.1248e+02   5.5480e+02 ;    C38 - O35    - C43
   554   552   555   1   1.1151e+02   5.4308e+02 ;    C39 - C37    - C40
   554   552   558   1   1.0956e+02   3.9246e+02 ;    C39 - C37    - H63
   554   567   568   1   1.0956e+02   3.9246e+02 ;    C39 - C42    - H69
   554   567   569   1   1.0956e+02   3.9246e+02 ;    C39 - C42    - H70
   554   567   570   1   1.1019e+02   7.0793e+02 ;    C39 - C42    - O34
   555   552   558   1   1.0956e+02   3.9246e+02 ;    C40 - C37    - H63
   555   556   560   1   1.0956e+02   3.9246e+02 ;    C40 - C41    - H65
   555   556   564   1   1.1019e+02   7.0793e+02 ;    C40 - C41    - O32
   555   562   563   1   1.0726e+02   4.1003e+02 ;    C40 - O31    - H67
   556   553   557   1   1.1022e+02   3.9079e+02 ;    C41 - C38    - H62
   556   553   566   1   1.0797e+02   7.1379e+02 ;    C41 - C38    - O33
   556   553   572   1   1.0797e+02   7.1379e+02 ;    C41 - C38    - O35
   556   555   559   1   1.0956e+02   3.9246e+02 ;    C41 - C40    - H64
   556   555   562   1   1.1019e+02   7.0793e+02 ;    C41 - C40    - O31
   556   564   565   1   1.0726e+02   4.1003e+02 ;    C41 - O32    - H68
   557   553   566   1   1.0958e+02   5.2216e+02 ;    H62 - C38    - O33
   557   553   572   1   1.0958e+02   5.2216e+02 ;    H62 - C38    - O35
   559   555   562   1   1.1026e+02   5.2300e+02 ;    H64 - C40    - O31
   560   556   564   1   1.1026e+02   5.2300e+02 ;    H65 - C41    - O32
   561   554   566   1   1.0978e+02   5.2216e+02 ;    H66 - C39    - O33
   561   554   567   1   1.0956e+02   3.9246e+02 ;    H66 - C39    - C42
   566   553   572   1   1.0829e+02   9.2801e+02 ;    O33 - C38    - O35
   566   554   567   1   1.0797e+02   7.1379e+02 ;    O33 - C39    - C42
   567   570   571   1   1.0726e+02   4.1003e+02 ;    C42 - O34    - H71
   568   567   569   1   1.0846e+02   3.2468e+02 ;    H69 - C42    - H70
   568   567   570   1   1.1026e+02   5.2300e+02 ;    H69 - C42    - O34
   569   567   570   1   1.1026e+02   5.2300e+02 ;    H70 - C42    - O34
   572   573   575   1   1.0797e+02   7.1379e+02 ;    O35 - C43    - C45
   572   573   576   1   1.0797e+02   7.1379e+02 ;    O35 - C43    - C46
   572   573   582   1   1.0978e+02   5.2216e+02 ;    O35 - C43    - H76
   573   575   574   1   1.1151e+02   5.4308e+02 ;    C43 - C45    - C44
   573   575   578   1   1.0956e+02   3.9246e+02 ;    C43 - C45    - H72
   573   575   591   1   1.1019e+02   7.0793e+02 ;    C43 - C45    - O39
   573   576   580   1   1.0956e+02   3.9246e+02 ;    C43 - C46    - H74
   573   576   583   1   1.0797e+02   7.1379e+02 ;    C43 - C46    - O36
   573   576   584   1   1.1151e+02   5.4308e+02 ;    C43 - C46    - C48
   574   575   578   1   1.0956e+02   3.9246e+02 ;    C44 - C45    - H72
   574   575   591   1   1.1019e+02   7.0793e+02 ;    C44 - C45    - O39
   574   577   581   1   1.1022e+02   3.9079e+02 ;    C44 - C47    - H75
   574   577   583   1   1.0797e+02   7.1379e+02 ;    C44 - C47    - O36
   574   577   593   1   1.0797e+02   7.1379e+02 ;    C44 - C47    - O40
   574   589   590   1   1.0726e+02   4.1003e+02 ;    C44 - O38    - H80
   575   573   576   1   1.1151e+02   5.4308e+02 ;    C45 - C43    - C46
   575   573   582   1   1.0956e+02   3.9246e+02 ;    C45 - C43    - H76
   575   574   577   1   1.1151e+02   5.4308e+02 ;    C45 - C44    - C47
   575   574   579   1   1.0956e+02   3.9246e+02 ;    C45 - C44    - H73
   575   574   589   1   1.1019e+02   7.0793e+02 ;    C45 - C44    - O38
   575   591   592   1   1.0726e+02   4.1003e+02 ;    C45 - O39    - H81
   576   573   582   1   1.0956e+02   3.9246e+02 ;    C46 - C43    - H76
   576   583   577   1   1.1248e+02   5.5480e+02 ;    C46 - O36    - C47
   576   584   585   1   1.0956e+02   3.9246e+02 ;    C46 - C48    - H77
   576   584   586   1   1.0956e+02   3.9246e+02 ;    C46 - C48    - H78
   576   584   587   1   1.1019e+02   7.0793e+02 ;    C46 - C48    - O37
   577   574   579   1   1.0956e+02   3.9246e+02 ;    C47 - C44    - H73
   577   574   589   1   1.1019e+02   7.0793e+02 ;    C47 - C44    - O38
   577   593   594   1   1.1248e+02   5.5480e+02 ;    C47 - O40    - C49
   578   575   591   1   1.1026e+02   5.2300e+02 ;    H72 - C45    - O39
   579   574   589   1   1.1026e+02   5.2300e+02 ;    H73 - C44    - O38
   580   576   583   1   1.0978e+02   5.2216e+02 ;    H74 - C46    - O36
   580   576   584   1   1.0956e+02   3.9246e+02 ;    H74 - C46    - C48
   581   577   583   1   1.0958e+02   5.2216e+02 ;    H75 - C47    - O36
   581   577   593   1   1.0958e+02   5.2216e+02 ;    H75 - C47    - O40
   583   576   584   1   1.0797e+02   7.1379e+02 ;    O36 - C46    - C48
   583   577   593   1   1.0829e+02   9.2801e+02 ;    O36 - C47    - O40
   584   587   588   1   1.0726e+02   4.1003e+02 ;    C48 - O37    - H79
   585   584   586   1   1.0846e+02   3.2468e+02 ;    H77 - C48    - H78
   585   584   587   1   1.1026e+02   5.2300e+02 ;    H77 - C48    - O37
   586   584   587   1   1.1026e+02   5.2300e+02 ;    H78 - C48    - O37
   593   594   596   1   1.0797e+02   7.1379e+02 ;    O40 - C49    - C51
   593   594   597   1   1.0797e+02   7.1379e+02 ;    O40 - C49    - C52
   593   594   600   1   1.0978e+02   5.2216e+02 ;    O40 - C49    - H83
   594   596   603   1   1.0956e+02   3.9246e+02 ;    C49 - C51    - H86
   594   596   608   1   1.0797e+02   7.1379e+02 ;    C49 - C51    - O43
   594   596   609   1   1.1151e+02   5.4308e+02 ;    C49 - C51    - C54
   594   597   598   1   1.1151e+02   5.4308e+02 ;    C49 - C52    - C53
   594   597   601   1   1.0956e+02   3.9246e+02 ;    C49 - C52    - H84
   594   597   604   1   1.1019e+02   7.0793e+02 ;    C49 - C52    - O41
   595   598   597   1   1.1151e+02   5.4308e+02 ;    C50 - C53    - C52
   595   598   602   1   1.0956e+02   3.9246e+02 ;    C50 - C53    - H85
   595   598   606   1   1.1019e+02   7.0793e+02 ;    C50 - C53    - O42
   595   608   596   1   1.1248e+02   5.5480e+02 ;    C50 - O43    - C51
   595   614   615   1   1.1248e+02   5.5480e+02 ;    C50 - O45    - C55
   596   594   597   1   1.1151e+02   5.4308e+02 ;    C51 - C49    - C52
   596   594   600   1   1.0956e+02   3.9246e+02 ;    C51 - C49    - H83
   596   609   610   1   1.0956e+02   3.9246e+02 ;    C51 - C54    - H89
   596   609   611   1   1.0956e+02   3.9246e+02 ;    C51 - C54    - H90
   596   609   612   1   1.1019e+02   7.0793e+02 ;    C51 - C54    - O44
   597   594   600   1   1.0956e+02   3.9246e+02 ;    C52 - C49    - H83
   597   598   602   1   1.0956e+02   3.9246e+02 ;    C52 - C53    - H85
   597   598   606   1   1.1019e+02   7.0793e+02 ;    C52 - C53    - O42
   597   604   605   1   1.0726e+02   4.1003e+02 ;    C52 - O41    - H87
   598   595   599   1   1.1022e+02   3.9079e+02 ;    C53 - C50    - H82
   598   595   608   1   1.0797e+02   7.1379e+02 ;    C53 - C50    - O43
   598   595   614   1   1.0797e+02   7.1379e+02 ;    C53 - C50    - O45
   598   597   601   1   1.0956e+02   3.9246e+02 ;    C53 - C52    - H84
   598   597   604   1   1.1019e+02   7.0793e+02 ;    C53 - C52    - O41
   598   606   607   1   1.0726e+02   4.1003e+02 ;    C53 - O42    - H88
   599   595   608   1   1.0958e+02   5.2216e+02 ;    H82 - C50    - O43
   599   595   614   1   1.0958e+02   5.2216e+02 ;    H82 - C50    - O45
   601   597   604   1   1.1026e+02   5.2300e+02 ;    H84 - C52    - O41
   602   598   606   1   1.1026e+02   5.2300e+02 ;    H85 - C53    - O42
   603   596   608   1   1.0978e+02   5.2216e+02 ;    H86 - C51    - O43
   603   596   609   1   1.0956e+02   3.9246e+02 ;    H86 - C51    - C54
   608   595   614   1   1.0829e+02   9.2801e+02 ;    O43 - C50    - O45
   608   596   609   1   1.0797e+02   7.1379e+02 ;    O43 - C51    - C54
   609   612   613   1   1.0726e+02   4.1003e+02 ;    C54 - O44    - H91
   610   609   611   1   1.0846e+02   3.2468e+02 ;    H89 - C54    - H90
   610   609   612   1   1.1026e+02   5.2300e+02 ;    H89 - C54    - O44
   611   609   612   1   1.1026e+02   5.2300e+02 ;    H90 - C54    - O44
   614   615   617   1   1.0797e+02   7.1379e+02 ;    O45 - C55    - C57
   614   615   618   1   1.0797e+02   7.1379e+02 ;    O45 - C55    - C58
   614   615   624   1   1.0978e+02   5.2216e+02 ;    O45 - C55    - H96
   615   617   616   1   1.1151e+02   5.4308e+02 ;    C55 - C57    - C56
   615   617   620   1   1.0956e+02   3.9246e+02 ;    C55 - C57    - H92
   615   617   633   1   1.1019e+02   7.0793e+02 ;    C55 - C57    - O49
   615   618   622   1   1.0956e+02   3.9246e+02 ;    C55 - C58    - H94
   615   618   625   1   1.0797e+02   7.1379e+02 ;    C55 - C58    - O46
   615   618   626   1   1.1151e+02   5.4308e+02 ;    C55 - C58    - C60
   616   617   620   1   1.0956e+02   3.9246e+02 ;    C56 - C57    - H92
   616   617   633   1   1.1019e+02   7.0793e+02 ;    C56 - C57    - O49
   616   619   623   1   1.1022e+02   3.9079e+02 ;    C56 - C59    - H95
   616   619   625   1   1.0797e+02   7.1379e+02 ;    C56 - C59    - O46
   616   619   635   1   1.1019e+02   7.0793e+02 ;    C56 - C59    - O50
   616   631   632   1   1.0726e+02   4.1003e+02 ;    C56 - O48    - H100
   617   615   618   1   1.1151e+02   5.4308e+02 ;    C57 - C55    - C58
   617   615   624   1   1.0956e+02   3.9246e+02 ;    C57 - C55    - H96
   617   616   619   1   1.1151e+02   5.4308e+02 ;    C57 - C56    - C59
   617   616   621   1   1.0956e+02   3.9246e+02 ;    C57 - C56    - H93
   617   616   631   1   1.1019e+02   7.0793e+02 ;    C57 - C56    - O48
   617   633   634   1   1.0726e+02   4.1003e+02 ;    C57 - O49    - H101
   618   615   624   1   1.0956e+02   3.9246e+02 ;    C58 - C55    - H96
   618   625   619   1   1.1248e+02   5.5480e+02 ;    C58 - O46    - C59
   618   626   627   1   1.0956e+02   3.9246e+02 ;    C58 - C60    - H97
   618   626   628   1   1.0956e+02   3.9246e+02 ;    C58 - C60    - H98
   618   626   629   1   1.1019e+02   7.0793e+02 ;    C58 - C60    - O47
   619   616   621   1   1.0956e+02   3.9246e+02 ;    C59 - C56    - H93
   619   616   631   1   1.1019e+02   7.0793e+02 ;    C59 - C56    - O48
   619   635   636   1   1.0726e+02   4.1003e+02 ;    C59 - O50    - H102
   620   617   633   1   1.1026e+02   5.2300e+02 ;    H92 - C57    - O49
   621   616   631   1   1.1026e+02   5.2300e+02 ;    H93 - C56    - O48
   622   618   625   1   1.0978e+02   5.2216e+02 ;    H94 - C58    - O46
   622   618   626   1   1.0956e+02   3.9246e+02 ;    H94 - C58    - C60
   623   619   625   1   1.0958e+02   5.2216e+02 ;    H95 - C59    - O46
   623   619   635   1   1.0943e+02   5.2551e+02 ;    H95 - C59    - O50
   625   618   626   1   1.0797e+02   7.1379e+02 ;    O46 - C58    - C60
   625   619   635   1   1.0938e+02   9.2634e+02 ;    O46 - C59    - O50
   626   629   630   1   1.0726e+02   4.1003e+02 ;    C60 - O47    - H99
   627   626   628   1   1.0846e+02   3.2468e+02 ;    H97 - C60    - H98
   627   626   629   1   1.1026e+02   5.2300e+02 ;    H97 - C60    - O47
   628   626   629   1   1.1026e+02   5.2300e+02 ;    H98 - C60    - O47
   637   638   640   1   1.0980e+02   3.9162e+02 ;     H1 - C1     - C3
   637   638   641   1   1.0980e+02   3.9162e+02 ;     H1 - C1     - C4
   637   638   644   1   1.0758e+02   3.2635e+02 ;     H1 - C1     - H3
   638   640   647   1   1.0956e+02   3.9246e+02 ;     C1 - C3     - H6
   638   640   652   1   1.0797e+02   7.1379e+02 ;     C1 - C3     - O3
   638   640   653   1   1.1151e+02   5.4308e+02 ;     C1 - C3     - C6
   638   641   642   1   1.1151e+02   5.4308e+02 ;     C1 - C4     - C5
   638   641   645   1   1.0956e+02   3.9246e+02 ;     C1 - C4     - H4
   638   641   648   1   1.1019e+02   7.0793e+02 ;     C1 - C4     - O1
   639   642   641   1   1.1151e+02   5.4308e+02 ;     C2 - C5     - C4
   639   642   646   1   1.0956e+02   3.9246e+02 ;     C2 - C5     - H5
   639   642   650   1   1.1019e+02   7.0793e+02 ;     C2 - C5     - O2
   639   652   640   1   1.1248e+02   5.5480e+02 ;     C2 - O3     - C3
   639   658   659   1   1.1248e+02   5.5480e+02 ;     C2 - O5     - C7
   640   638   641   1   1.1151e+02   5.4308e+02 ;     C3 - C1     - C4
   640   638   644   1   1.0980e+02   3.9162e+02 ;     C3 - C1     - H3
   640   653   654   1   1.0956e+02   3.9246e+02 ;     C3 - C6     - H9
   640   653   655   1   1.0956e+02   3.9246e+02 ;     C3 - C6     - H10
   640   653   656   1   1.1019e+02   7.0793e+02 ;     C3 - C6     - O4
   641   638   644   1   1.0980e+02   3.9162e+02 ;     C4 - C1     - H3
   641   642   646   1   1.0956e+02   3.9246e+02 ;     C4 - C5     - H5
   641   642   650   1   1.1019e+02   7.0793e+02 ;     C4 - C5     - O2
   641   648   649   1   1.0726e+02   4.1003e+02 ;     C4 - O1     - H7
   642   639   643   1   1.1022e+02   3.9079e+02 ;     C5 - C2     - H2
   642   639   652   1   1.0797e+02   7.1379e+02 ;     C5 - C2     - O3
   642   639   658   1   1.0797e+02   7.1379e+02 ;     C5 - C2     - O5
   642   641   645   1   1.0956e+02   3.9246e+02 ;     C5 - C4     - H4
   642   641   648   1   1.1019e+02   7.0793e+02 ;     C5 - C4     - O1
   642   650   651   1   1.0726e+02   4.1003e+02 ;     C5 - O2     - H8
   643   639   652   1   1.0958e+02   5.2216e+02 ;     H2 - C2     - O3
   643   639   658   1   1.0958e+02   5.2216e+02 ;     H2 - C2     - O5
   645   641   648   1   1.1026e+02   5.2300e+02 ;     H4 - C4     - O1
   646   642   650   1   1.1026e+02   5.2300e+02 ;     H5 - C5     - O2
   647   640   652   1   1.0978e+02   5.2216e+02 ;     H6 - C3     - O3
   647   640   653   1   1.0956e+02   3.9246e+02 ;     H6 - C3     - C6
   652   639   658   1   1.0829e+02   9.2801e+02 ;     O3 - C2     - O5
   652   640   653   1   1.0797e+02   7.1379e+02 ;     O3 - C3     - C6
   653   656   657   1   1.0726e+02   4.1003e+02 ;     C6 - O4     - H11
   654   653   655   1   1.0846e+02   3.2468e+02 ;     H9 - C6     - H10
   654   653   656   1   1.1026e+02   5.2300e+02 ;     H9 - C6     - O4
   655   653   656   1   1.1026e+02   5.2300e+02 ;    H10 - C6     - O4
   658   659   661   1   1.0797e+02   7.1379e+02 ;     O5 - C7     - C9
   658   659   662   1   1.0797e+02   7.1379e+02 ;     O5 - C7     - C10
   658   659   668   1   1.0978e+02   5.2216e+02 ;     O5 - C7     - H16
   659   661   660   1   1.1151e+02   5.4308e+02 ;     C7 - C9     - C8
   659   661   664   1   1.0956e+02   3.9246e+02 ;     C7 - C9     - H12
   659   661   677   1   1.1019e+02   7.0793e+02 ;     C7 - C9     - O9
   659   662   666   1   1.0956e+02   3.9246e+02 ;     C7 - C10    - H14
   659   662   669   1   1.0797e+02   7.1379e+02 ;     C7 - C10    - O6
   659   662   670   1   1.1151e+02   5.4308e+02 ;     C7 - C10    - C12
   660   661   664   1   1.0956e+02   3.9246e+02 ;     C8 - C9     - H12
   660   661   677   1   1.1019e+02   7.0793e+02 ;     C8 - C9     - O9
   660   663   667   1   1.1022e+02   3.9079e+02 ;     C8 - C11    - H15
   660   663   669   1   1.0797e+02   7.1379e+02 ;     C8 - C11    - O6
   660   663   679   1   1.0797e+02   7.1379e+02 ;     C8 - C11    - O10
   660   675   676   1   1.0726e+02   4.1003e+02 ;     C8 - O8     - H20
   661   659   662   1   1.1151e+02   5.4308e+02 ;     C9 - C7     - C10
   661   659   668   1   1.0956e+02   3.9246e+02 ;     C9 - C7     - H16
   661   660   663   1   1.1151e+02   5.4308e+02 ;     C9 - C8     - C11
   661   660   665   1   1.0956e+02   3.9246e+02 ;     C9 - C8     - H13
   661   660   675   1   1.1019e+02   7.0793e+02 ;     C9 - C8     - O8
   661   677   678   1   1.0726e+02   4.1003e+02 ;     C9 - O9     - H21
   662   659   668   1   1.0956e+02   3.9246e+02 ;    C10 - C7     - H16
   662   669   663   1   1.1248e+02   5.5480e+02 ;    C10 - O6     - C11
   662   670   671   1   1.0956e+02   3.9246e+02 ;    C10 - C12    - H17
   662   670   672   1   1.0956e+02   3.9246e+02 ;    C10 - C12    - H18
   662   670   673   1   1.1019e+02   7.0793e+02 ;    C10 - C12    - O7
   663   660   665   1   1.0956e+02   3.9246e+02 ;    C11 - C8     - H13
   663   660   675   1   1.1019e+02   7.0793e+02 ;    C11 - C8     - O8
   663   679   680   1   1.1248e+02   5.5480e+02 ;    C11 - O10    - C13
   664   661   677   1   1.1026e+02   5.2300e+02 ;    H12 - C9     - O9
   665   660   675   1   1.1026e+02   5.2300e+02 ;    H13 - C8     - O8
   666   662   669   1   1.0978e+02   5.2216e+02 ;    H14 - C10    - O6
   666   662   670   1   1.0956e+02   3.9246e+02 ;    H14 - C10    - C12
   667   663   669   1   1.0958e+02   5.2216e+02 ;    H15 - C11    - O6
   667   663   679   1   1.0958e+02   5.2216e+02 ;    H15 - C11    - O10
   669   662   670   1   1.0797e+02   7.1379e+02 ;     O6 - C10    - C12
   669   663   679   1   1.0829e+02   9.2801e+02 ;     O6 - C11    - O10
   670   673   674   1   1.0726e+02   4.1003e+02 ;    C12 - O7     - H19
   671   670   672   1   1.0846e+02   3.2468e+02 ;    H17 - C12    - H18
   671   670   673   1   1.1026e+02   5.2300e+02 ;    H17 - C12    - O7
   672   670   673   1   1.1026e+02   5.2300e+02 ;    H18 - C12    - O7
   679   680   682   1   1.0797e+02   7.1379e+02 ;    O10 - C13    - C15
   679   680   683   1   1.0797e+02   7.1379e+02 ;    O10 - C13    - C16
   679   680   686   1   1.0978e+02   5.2216e+02 ;    O10 - C13    - H23
   680   682   689   1   1.0956e+02   3.9246e+02 ;    C13 - C15    - H26
   680   682   694   1   1.0797e+02   7.1379e+02 ;    C13 - C15    - O13
   680   682   695   1   1.1151e+02   5.4308e+02 ;    C13 - C15    - C18
   680   683   684   1   1.1151e+02   5.4308e+02 ;    C13 - C16    - C17
   680   683   687   1   1.0956e+02   3.9246e+02 ;    C13 - C16    - H24
   680   683   690   1   1.1019e+02   7.0793e+02 ;    C13 - C16    - O11
   681   684   683   1   1.1151e+02   5.4308e+02 ;    C14 - C17    - C16
   681   684   688   1   1.0956e+02   3.9246e+02 ;    C14 - C17    - H25
   681   684   692   1   1.1019e+02   7.0793e+02 ;    C14 - C17    - O12
   681   694   682   1   1.1248e+02   5.5480e+02 ;    C14 - O13    - C15
   681   700   701   1   1.1248e+02   5.5480e+02 ;    C14 - O15    - C19
   682   680   683   1   1.1151e+02   5.4308e+02 ;    C15 - C13    - C16
   682   680   686   1   1.0956e+02   3.9246e+02 ;    C15 - C13    - H23
   682   695   696   1   1.0956e+02   3.9246e+02 ;    C15 - C18    - H29
   682   695   697   1   1.0956e+02   3.9246e+02 ;    C15 - C18    - H30
   682   695   698   1   1.1019e+02   7.0793e+02 ;    C15 - C18    - O14
   683   680   686   1   1.0956e+02   3.9246e+02 ;    C16 - C13    - H23
   683   684   688   1   1.0956e+02   3.9246e+02 ;    C16 - C17    - H25
   683   684   692   1   1.1019e+02   7.0793e+02 ;    C16 - C17    - O12
   683   690   691   1   1.0726e+02   4.1003e+02 ;    C16 - O11    - H27
   684   681   685   1   1.1022e+02   3.9079e+02 ;    C17 - C14    - H22
   684   681   694   1   1.0797e+02   7.1379e+02 ;    C17 - C14    - O13
   684   681   700   1   1.0797e+02   7.1379e+02 ;    C17 - C14    - O15
   684   683   687   1   1.0956e+02   3.9246e+02 ;    C17 - C16    - H24
   684   683   690   1   1.1019e+02   7.0793e+02 ;    C17 - C16    - O11
   684   692   693   1   1.0726e+02   4.1003e+02 ;    C17 - O12    - H28
   685   681   694   1   1.0958e+02   5.2216e+02 ;    H22 - C14    - O13
   685   681   700   1   1.0958e+02   5.2216e+02 ;    H22 - C14    - O15
   687   683   690   1   1.1026e+02   5.2300e+02 ;    H24 - C16    - O11
   688   684   692   1   1.1026e+02   5.2300e+02 ;    H25 - C17    - O12
   689   682   694   1   1.0978e+02   5.2216e+02 ;    H26 - C15    - O13
   689   682   695   1   1.0956e+02   3.9246e+02 ;    H26 - C15    - C18
   694   681   700   1   1.0829e+02   9.2801e+02 ;    O13 - C14    - O15
   694   682   695   1   1.0797e+02   7.1379e+02 ;    O13 - C15    - C18
   695   698   699   1   1.0726e+02   4.1003e+02 ;    C18 - O14    - H31
   696   695   697   1   1.0846e+02   3.2468e+02 ;    H29 - C18    - H30
   696   695   698   1   1.1026e+02   5.2300e+02 ;    H29 - C18    - O14
   697   695   698   1   1.1026e+02   5.2300e+02 ;    H30 - C18    - O14
   700   701   703   1   1.0797e+02   7.1379e+02 ;    O15 - C19    - C21
   700   701   704   1   1.0797e+02   7.1379e+02 ;    O15 - C19    - C22
   700   701   710   1   1.0978e+02   5.2216e+02 ;    O15 - C19    - H36
   701   703   702   1   1.1151e+02   5.4308e+02 ;    C19 - C21    - C20
   701   703   706   1   1.0956e+02   3.9246e+02 ;    C19 - C21    - H32
   701   703   719   1   1.1019e+02   7.0793e+02 ;    C19 - C21    - O19
   701   704   708   1   1.0956e+02   3.9246e+02 ;    C19 - C22    - H34
   701   704   711   1   1.0797e+02   7.1379e+02 ;    C19 - C22    - O16
   701   704   712   1   1.1151e+02   5.4308e+02 ;    C19 - C22    - C24
   702   703   706   1   1.0956e+02   3.9246e+02 ;    C20 - C21    - H32
   702   703   719   1   1.1019e+02   7.0793e+02 ;    C20 - C21    - O19
   702   705   709   1   1.1022e+02   3.9079e+02 ;    C20 - C23    - H35
   702   705   711   1   1.0797e+02   7.1379e+02 ;    C20 - C23    - O16
   702   705   721   1   1.0797e+02   7.1379e+02 ;    C20 - C23    - O20
   702   717   718   1   1.0726e+02   4.1003e+02 ;    C20 - O18    - H40
   703   701   704   1   1.1151e+02   5.4308e+02 ;    C21 - C19    - C22
   703   701   710   1   1.0956e+02   3.9246e+02 ;    C21 - C19    - H36
   703   702   705   1   1.1151e+02   5.4308e+02 ;    C21 - C20    - C23
   703   702   707   1   1.0956e+02   3.9246e+02 ;    C21 - C20    - H33
   703   702   717   1   1.1019e+02   7.0793e+02 ;    C21 - C20    - O18
   703   719   720   1   1.0726e+02   4.1003e+02 ;    C21 - O19    - H41
   704   701   710   1   1.0956e+02   3.9246e+02 ;    C22 - C19    - H36
   704   711   705   1   1.1248e+02   5.5480e+02 ;    C22 - O16    - C23
   704   712   713   1   1.0956e+02   3.9246e+02 ;    C22 - C24    - H37
   704   712   714   1   1.0956e+02   3.9246e+02 ;    C22 - C24    - H38
   704   712   715   1   1.1019e+02   7.0793e+02 ;    C22 - C24    - O17
   705   702   707   1   1.0956e+02   3.9246e+02 ;    C23 - C20    - H33
   705   702   717   1   1.1019e+02   7.0793e+02 ;    C23 - C20    - O18
   705   721   722   1   1.1248e+02   5.5480e+02 ;    C23 - O20    - C25
   706   703   719   1   1.1026e+02   5.2300e+02 ;    H32 - C21    - O19
   707   702   717   1   1.1026e+02   5.2300e+02 ;    H33 - C20    - O18
   708   704   711   1   1.0978e+02   5.2216e+02 ;    H34 - C22    - O16
   708   704   712   1   1.0956e+02   3.9246e+02 ;    H34 - C22    - C24
   709   705   711   1   1.0958e+02   5.2216e+02 ;    H35 - C23    - O16
   709   705   721   1   1.0958e+02   5.2216e+02 ;    H35 - C23    - O20
   711   704   712   1   1.0797e+02   7.1379e+02 ;    O16 - C22    - C24
   711   705   721   1   1.0829e+02   9.2801e+02 ;    O16 - C23    - O20
   712   715   716   1   1.0726e+02   4.1003e+02 ;    C24 - O17    - H39
   713   712   714   1   1.0846e+02   3.2468e+02 ;    H37 - C24    - H38
   713   712   715   1   1.1026e+02   5.2300e+02 ;    H37 - C24    - O17
   714   712   715   1   1.1026e+02   5.2300e+02 ;    H38 - C24    - O17
   721   722   724   1   1.0797e+02   7.1379e+02 ;    O20 - C25    - C27
   721   722   725   1   1.0797e+02   7.1379e+02 ;    O20 - C25    - C28
   721   722   728   1   1.0978e+02   5.2216e+02 ;    O20 - C25    - H43
   722   724   731   1   1.0956e+02   3.9246e+02 ;    C25 - C27    - H46
   722   724   736   1   1.0797e+02   7.1379e+02 ;    C25 - C27    - O23
   722   724   737   1   1.1151e+02   5.4308e+02 ;    C25 - C27    - C30
   722   725   726   1   1.1151e+02   5.4308e+02 ;    C25 - C28    - C29
   722   725   729   1   1.0956e+02   3.9246e+02 ;    C25 - C28    - H44
   722   725   732   1   1.1019e+02   7.0793e+02 ;    C25 - C28    - O21
   723   726   725   1   1.1151e+02   5.4308e+02 ;    C26 - C29    - C28
   723   726   730   1   1.0956e+02   3.9246e+02 ;    C26 - C29    - H45
   723   726   734   1   1.1019e+02   7.0793e+02 ;    C26 - C29    - O22
   723   736   724   1   1.1248e+02   5.5480e+02 ;    C26 - O23    - C27
   723   742   743   1   1.1248e+02   5.5480e+02 ;    C26 - O25    - C31
   724   722   725   1   1.1151e+02   5.4308e+02 ;    C27 - C25    - C28
   724   722   728   1   1.0956e+02   3.9246e+02 ;    C27 - C25    - H43
   724   737   738   1   1.0956e+02   3.9246e+02 ;    C27 - C30    - H49
   724   737   739   1   1.0956e+02   3.9246e+02 ;    C27 - C30    - H50
   724   737   740   1   1.1019e+02   7.0793e+02 ;    C27 - C30    - O24
   725   722   728   1   1.0956e+02   3.9246e+02 ;    C28 - C25    - H43
   725   726   730   1   1.0956e+02   3.9246e+02 ;    C28 - C29    - H45
   725   726   734   1   1.1019e+02   7.0793e+02 ;    C28 - C29    - O22
   725   732   733   1   1.0726e+02   4.1003e+02 ;    C28 - O21    - H47
   726   723   727   1   1.1022e+02   3.9079e+02 ;    C29 - C26    - H42
   726   723   736   1   1.0797e+02   7.1379e+02 ;    C29 - C26    - O23
   726   723   742   1   1.0797e+02   7.1379e+02 ;    C29 - C26    - O25
   726   725   729   1   1.0956e+02   3.9246e+02 ;    C29 - C28    - H44
   726   725   732   1   1.1019e+02   7.0793e+02 ;    C29 - C28    - O21
   726   734   735   1   1.0726e+02   4.1003e+02 ;    C29 - O22    - H48
   727   723   736   1   1.0958e+02   5.2216e+02 ;    H42 - C26    - O23
   727   723   742   1   1.0958e+02   5.2216e+02 ;    H42 - C26    - O25
   729   725   732   1   1.1026e+02   5.2300e+02 ;    H44 - C28    - O21
   730   726   734   1   1.1026e+02   5.2300e+02 ;    H45 - C29    - O22
   731   724   736   1   1.0978e+02   5.2216e+02 ;    H46 - C27    - O23
   731   724   737   1   1.0956e+02   3.9246e+02 ;    H46 - C27    - C30
   736   723   742   1   1.0829e+02   9.2801e+02 ;    O23 - C26    - O25
   736   724   737   1   1.0797e+02   7.1379e+02 ;    O23 - C27    - C30
   737   740   741   1   1.0726e+02   4.1003e+02 ;    C30 - O24    - H51
   738   737   739   1   1.0846e+02   3.2468e+02 ;    H49 - C30    - H50
   738   737   740   1   1.1026e+02   5.2300e+02 ;    H49 - C30    - O24
   739   737   740   1   1.1026e+02   5.2300e+02 ;    H50 - C30    - O24
   742   743   745   1   1.0797e+02   7.1379e+02 ;    O25 - C31    - C33
   742   743   746   1   1.0797e+02   7.1379e+02 ;    O25 - C31    - C34
   742   743   752   1   1.0978e+02   5.2216e+02 ;    O25 - C31    - H56
   743   745   744   1   1.1151e+02   5.4308e+02 ;    C31 - C33    - C32
   743   745   748   1   1.0956e+02   3.9246e+02 ;    C31 - C33    - H52
   743   745   761   1   1.1019e+02   7.0793e+02 ;    C31 - C33    - O29
   743   746   750   1   1.0956e+02   3.9246e+02 ;    C31 - C34    - H54
   743   746   753   1   1.0797e+02   7.1379e+02 ;    C31 - C34    - O26
   743   746   754   1   1.1151e+02   5.4308e+02 ;    C31 - C34    - C36
   744   745   748   1   1.0956e+02   3.9246e+02 ;    C32 - C33    - H52
   744   745   761   1   1.1019e+02   7.0793e+02 ;    C32 - C33    - O29
   744   747   751   1   1.1022e+02   3.9079e+02 ;    C32 - C35    - H55
   744   747   753   1   1.0797e+02   7.1379e+02 ;    C32 - C35    - O26
   744   747   763   1   1.0797e+02   7.1379e+02 ;    C32 - C35    - O30
   744   759   760   1   1.0726e+02   4.1003e+02 ;    C32 - O28    - H60
   745   743   746   1   1.1151e+02   5.4308e+02 ;    C33 - C31    - C34
   745   743   752   1   1.0956e+02   3.9246e+02 ;    C33 - C31    - H56
   745   744   747   1   1.1151e+02   5.4308e+02 ;    C33 - C32    - C35
   745   744   749   1   1.0956e+02   3.9246e+02 ;    C33 - C32    - H53
   745   744   759   1   1.1019e+02   7.0793e+02 ;    C33 - C32    - O28
   745   761   762   1   1.0726e+02   4.1003e+02 ;    C33 - O29    - H61
   746   743   752   1   1.0956e+02   3.9246e+02 ;    C34 - C31    - H56
   746   753   747   1   1.1248e+02   5.5480e+02 ;    C34 - O26    - C35
   746   754   755   1   1.0956e+02   3.9246e+02 ;    C34 - C36    - H57
   746   754   756   1   1.0956e+02   3.9246e+02 ;    C34 - C36    - H58
   746   754   757   1   1.1019e+02   7.0793e+02 ;    C34 - C36    - O27
   747   744   749   1   1.0956e+02   3.9246e+02 ;    C35 - C32    - H53
   747   744   759   1   1.1019e+02   7.0793e+02 ;    C35 - C32    - O28
   747   763   764   1   1.1248e+02   5.5480e+02 ;    C35 - O30    - C37
   748   745   761   1   1.1026e+02   5.2300e+02 ;    H52 - C33    - O29
   749   744   759   1   1.1026e+02   5.2300e+02 ;    H53 - C32    - O28
   750   746   753   1   1.0978e+02   5.2216e+02 ;    H54 - C34    - O26
   750   746   754   1   1.0956e+02   3.9246e+02 ;    H54 - C34    - C36
   751   747   753   1   1.0958e+02   5.2216e+02 ;    H55 - C35    - O26
   751   747   763   1   1.0958e+02   5.2216e+02 ;    H55 - C35    - O30
   753   746   754   1   1.0797e+02   7.1379e+02 ;    O26 - C34    - C36
   753   747   763   1   1.0829e+02   9.2801e+02 ;    O26 - C35    - O30
   754   757   758   1   1.0726e+02   4.1003e+02 ;    C36 - O27    - H59
   755   754   756   1   1.0846e+02   3.2468e+02 ;    H57 - C36    - H58
   755   754   757   1   1.1026e+02   5.2300e+02 ;    H57 - C36    - O27
   756   754   757   1   1.1026e+02   5.2300e+02 ;    H58 - C36    - O27
   763   764   766   1   1.0797e+02   7.1379e+02 ;    O30 - C37    - C39
   763   764   767   1   1.0797e+02   7.1379e+02 ;    O30 - C37    - C40
   763   764   770   1   1.0978e+02   5.2216e+02 ;    O30 - C37    - H63
   764   766   773   1   1.0956e+02   3.9246e+02 ;    C37 - C39    - H66
   764   766   778   1   1.0797e+02   7.1379e+02 ;    C37 - C39    - O33
   764   766   779   1   1.1151e+02   5.4308e+02 ;    C37 - C39    - C42
   764   767   768   1   1.1151e+02   5.4308e+02 ;    C37 - C40    - C41
   764   767   771   1   1.0956e+02   3.9246e+02 ;    C37 - C40    - H64
   764   767   774   1   1.1019e+02   7.0793e+02 ;    C37 - C40    - O31
   765   768   767   1   1.1151e+02   5.4308e+02 ;    C38 - C41    - C40
   765   768   772   1   1.0956e+02   3.9246e+02 ;    C38 - C41    - H65
   765   768   776   1   1.1019e+02   7.0793e+02 ;    C38 - C41    - O32
   765   778   766   1   1.1248e+02   5.5480e+02 ;    C38 - O33    - C39
   765   784   785   1   1.1248e+02   5.5480e+02 ;    C38 - O35    - C43
   766   764   767   1   1.1151e+02   5.4308e+02 ;    C39 - C37    - C40
   766   764   770   1   1.0956e+02   3.9246e+02 ;    C39 - C37    - H63
   766   779   780   1   1.0956e+02   3.9246e+02 ;    C39 - C42    - H69
   766   779   781   1   1.0956e+02   3.9246e+02 ;    C39 - C42    - H70
   766   779   782   1   1.1019e+02   7.0793e+02 ;    C39 - C42    - O34
   767   764   770   1   1.0956e+02   3.9246e+02 ;    C40 - C37    - H63
   767   768   772   1   1.0956e+02   3.9246e+02 ;    C40 - C41    - H65
   767   768   776   1   1.1019e+02   7.0793e+02 ;    C40 - C41    - O32
   767   774   775   1   1.0726e+02   4.1003e+02 ;    C40 - O31    - H67
   768   765   769   1   1.1022e+02   3.9079e+02 ;    C41 - C38    - H62
   768   765   778   1   1.0797e+02   7.1379e+02 ;    C41 - C38    - O33
   768   765   784   1   1.0797e+02   7.1379e+02 ;    C41 - C38    - O35
   768   767   771   1   1.0956e+02   3.9246e+02 ;    C41 - C40    - H64
   768   767   774   1   1.1019e+02   7.0793e+02 ;    C41 - C40    - O31
   768   776   777   1   1.0726e+02   4.1003e+02 ;    C41 - O32    - H68
   769   765   778   1   1.0958e+02   5.2216e+02 ;    H62 - C38    - O33
   769   765   784   1   1.0958e+02   5.2216e+02 ;    H62 - C38    - O35
   771   767   774   1   1.1026e+02   5.2300e+02 ;    H64 - C40    - O31
   772   768   776   1   1.1026e+02   5.2300e+02 ;    H65 - C41    - O32
   773   766   778   1   1.0978e+02   5.2216e+02 ;    H66 - C39    - O33
   773   766   779   1   1.0956e+02   3.9246e+02 ;    H66 - C39    - C42
   778   765   784   1   1.0829e+02   9.2801e+02 ;    O33 - C38    - O35
   778   766   779   1   1.0797e+02   7.1379e+02 ;    O33 - C39    - C42
   779   782   783   1   1.0726e+02   4.1003e+02 ;    C42 - O34    - H71
   780   779   781   1   1.0846e+02   3.2468e+02 ;    H69 - C42    - H70
   780   779   782   1   1.1026e+02   5.2300e+02 ;    H69 - C42    - O34
   781   779   782   1   1.1026e+02   5.2300e+02 ;    H70 - C42    - O34
   784   785   787   1   1.0797e+02   7.1379e+02 ;    O35 - C43    - C45
   784   785   788   1   1.0797e+02   7.1379e+02 ;    O35 - C43    - C46
   784   785   794   1   1.0978e+02   5.2216e+02 ;    O35 - C43    - H76
   785   787   786   1   1.1151e+02   5.4308e+02 ;    C43 - C45    - C44
   785   787   790   1   1.0956e+02   3.9246e+02 ;    C43 - C45    - H72
   785   787   803   1   1.1019e+02   7.0793e+02 ;    C43 - C45    - O39
   785   788   792   1   1.0956e+02   3.9246e+02 ;    C43 - C46    - H74
   785   788   795   1   1.0797e+02   7.1379e+02 ;    C43 - C46    - O36
   785   788   796   1   1.1151e+02   5.4308e+02 ;    C43 - C46    - C48
   786   787   790   1   1.0956e+02   3.9246e+02 ;    C44 - C45    - H72
   786   787   803   1   1.1019e+02   7.0793e+02 ;    C44 - C45    - O39
   786   789   793   1   1.1022e+02   3.9079e+02 ;    C44 - C47    - H75
   786   789   795   1   1.0797e+02   7.1379e+02 ;    C44 - C47    - O36
   786   789   805   1   1.0797e+02   7.1379e+02 ;    C44 - C47    - O40
   786   801   802   1   1.0726e+02   4.1003e+02 ;    C44 - O38    - H80
   787   785   788   1   1.1151e+02   5.4308e+02 ;    C45 - C43    - C46
   787   785   794   1   1.0956e+02   3.9246e+02 ;    C45 - C43    - H76
   787   786   789   1   1.1151e+02   5.4308e+02 ;    C45 - C44    - C47
   787   786   791   1   1.0956e+02   3.9246e+02 ;    C45 - C44    - H73
   787   786   801   1   1.1019e+02   7.0793e+02 ;    C45 - C44    - O38
   787   803   804   1   1.0726e+02   4.1003e+02 ;    C45 - O39    - H81
   788   785   794   1   1.0956e+02   3.9246e+02 ;    C46 - C43    - H76
   788   795   789   1   1.1248e+02   5.5480e+02 ;    C46 - O36    - C47
   788   796   797   1   1.0956e+02   3.9246e+02 ;    C46 - C48    - H77
   788   796   798   1   1.0956e+02   3.9246e+02 ;    C46 - C48    - H78
   788   796   799   1   1.1019e+02   7.0793e+02 ;    C46 - C48    - O37
   789   786   791   1   1.0956e+02   3.9246e+02 ;    C47 - C44    - H73
   789   786   801   1   1.1019e+02   7.0793e+02 ;    C47 - C44    - O38
   789   805   806   1   1.1248e+02   5.5480e+02 ;    C47 - O40    - C49
   790   787   803   1   1.1026e+02   5.2300e+02 ;    H72 - C45    - O39
   791   786   801   1   1.1026e+02   5.2300e+02 ;    H73 - C44    - O38
   792   788   795   1   1.0978e+02   5.2216e+02 ;    H74 - C46    - O36
   792   788   796   1   1.0956e+02   3.9246e+02 ;    H74 - C46    - C48
   793   789   795   1   1.0958e+02   5.2216e+02 ;    H75 - C47    - O36
   793   789   805   1   1.0958e+02   5.2216e+02 ;    H75 - C47    - O40
   795   788   796   1   1.0797e+02   7.1379e+02 ;    O36 - C46    - C48
   795   789   805   1   1.0829e+02   9.2801e+02 ;    O36 - C47    - O40
   796   799   800   1   1.0726e+02   4.1003e+02 ;    C48 - O37    - H79
   797   796   798   1   1.0846e+02   3.2468e+02 ;    H77 - C48    - H78
   797   796   799   1   1.1026e+02   5.2300e+02 ;    H77 - C48    - O37
   798   796   799   1   1.1026e+02   5.2300e+02 ;    H78 - C48    - O37
   805   806   808   1   1.0797e+02   7.1379e+02 ;    O40 - C49    - C51
   805   806   809   1   1.0797e+02   7.1379e+02 ;    O40 - C49    - C52
   805   806   812   1   1.0978e+02   5.2216e+02 ;    O40 - C49    - H83
   806   808   815   1   1.0956e+02   3.9246e+02 ;    C49 - C51    - H86
   806   808   820   1   1.0797e+02   7.1379e+02 ;    C49 - C51    - O43
   806   808   821   1   1.1151e+02   5.4308e+02 ;    C49 - C51    - C54
   806   809   810   1   1.1151e+02   5.4308e+02 ;    C49 - C52    - C53
   806   809   813   1   1.0956e+02   3.9246e+02 ;    C49 - C52    - H84
   806   809   816   1   1.1019e+02   7.0793e+02 ;    C49 - C52    - O41
   807   810   809   1   1.1151e+02   5.4308e+02 ;    C50 - C53    - C52
   807   810   814   1   1.0956e+02   3.9246e+02 ;    C50 - C53    - H85
   807   810   818   1   1.1019e+02   7.0793e+02 ;    C50 - C53    - O42
   807   820   808   1   1.1248e+02   5.5480e+02 ;    C50 - O43    - C51
   807   826   827   1   1.1248e+02   5.5480e+02 ;    C50 - O45    - C55
   808   806   809   1   1.1151e+02   5.4308e+02 ;    C51 - C49    - C52
   808   806   812   1   1.0956e+02   3.9246e+02 ;    C51 - C49    - H83
   808   821   822   1   1.0956e+02   3.9246e+02 ;    C51 - C54    - H89
   808   821   823   1   1.0956e+02   3.9246e+02 ;    C51 - C54    - H90
   808   821   824   1   1.1019e+02   7.0793e+02 ;    C51 - C54    - O44
   809   806   812   1   1.0956e+02   3.9246e+02 ;    C52 - C49    - H83
   809   810   814   1   1.0956e+02   3.9246e+02 ;    C52 - C53    - H85
   809   810   818   1   1.1019e+02   7.0793e+02 ;    C52 - C53    - O42
   809   816   817   1   1.0726e+02   4.1003e+02 ;    C52 - O41    - H87
   810   807   811   1   1.1022e+02   3.9079e+02 ;    C53 - C50    - H82
   810   807   820   1   1.0797e+02   7.1379e+02 ;    C53 - C50    - O43
   810   807   826   1   1.0797e+02   7.1379e+02 ;    C53 - C50    - O45
   810   809   813   1   1.0956e+02   3.9246e+02 ;    C53 - C52    - H84
   810   809   816   1   1.1019e+02   7.0793e+02 ;    C53 - C52    - O41
   810   818   819   1   1.0726e+02   4.1003e+02 ;    C53 - O42    - H88
   811   807   820   1   1.0958e+02   5.2216e+02 ;    H82 - C50    - O43
   811   807   826   1   1.0958e+02   5.2216e+02 ;    H82 - C50    - O45
   813   809   816   1   1.1026e+02   5.2300e+02 ;    H84 - C52    - O41
   814   810   818   1   1.1026e+02   5.2300e+02 ;    H85 - C53    - O42
   815   808   820   1   1.0978e+02   5.2216e+02 ;    H86 - C51    - O43
   815   808   821   1   1.0956e+02   3.9246e+02 ;    H86 - C51    - C54
   820   807   826   1   1.0829e+02   9.2801e+02 ;    O43 - C50    - O45
   820   808   821   1   1.0797e+02   7.1379e+02 ;    O43 - C51    - C54
   821   824   825   1   1.0726e+02   4.1003e+02 ;    C54 - O44    - H91
   822   821   823   1   1.0846e+02   3.2468e+02 ;    H89 - C54    - H90
   822   821   824   1   1.1026e+02   5.2300e+02 ;    H89 - C54    - O44
   823   821   824   1   1.1026e+02   5.2300e+02 ;    H90 - C54    - O44
   826   827   829   1   1.0797e+02   7.1379e+02 ;    O45 - C55    - C57
   826   827   830   1   1.0797e+02   7.1379e+02 ;    O45 - C55    - C58
   826   827   836   1   1.0978e+02   5.2216e+02 ;    O45 - C55    - H96
   827   829   828   1   1.1151e+02   5.4308e+02 ;    C55 - C57    - C56
   827   829   832   1   1.0956e+02   3.9246e+02 ;    C55 - C57    - H92
   827   829   845   1   1.1019e+02   7.0793e+02 ;    C55 - C57    - O49
   827   830   834   1   1.0956e+02   3.9246e+02 ;    C55 - C58    - H94
   827   830   837   1   1.0797e+02   7.1379e+02 ;    C55 - C58    - O46
   827   830   838   1   1.1151e+02   5.4308e+02 ;    C55 - C58    - C60
   828   829   832   1   1.0956e+02   3.9246e+02 ;    C56 - C57    - H92
   828   829   845   1   1.1019e+02   7.0793e+02 ;    C56 - C57    - O49
   828   831   835   1   1.1022e+02   3.9079e+02 ;    C56 - C59    - H95
   828   831   837   1   1.0797e+02   7.1379e+02 ;    C56 - C59    - O46
   828   831   847   1   1.1019e+02   7.0793e+02 ;    C56 - C59    - O50
   828   843   844   1   1.0726e+02   4.1003e+02 ;    C56 - O48    - H100
   829   827   830   1   1.1151e+02   5.4308e+02 ;    C57 - C55    - C58
   829   827   836   1   1.0956e+02   3.9246e+02 ;    C57 - C55    - H96
   829   828   831   1   1.1151e+02   5.4308e+02 ;    C57 - C56    - C59
   829   828   833   1   1.0956e+02   3.9246e+02 ;    C57 - C56    - H93
   829   828   843   1   1.1019e+02   7.0793e+02 ;    C57 - C56    - O48
   829   845   846   1   1.0726e+02   4.1003e+02 ;    C57 - O49    - H101
   830   827   836   1   1.0956e+02   3.9246e+02 ;    C58 - C55    - H96
   830   837   831   1   1.1248e+02   5.5480e+02 ;    C58 - O46    - C59
   830   838   839   1   1.0956e+02   3.9246e+02 ;    C58 - C60    - H97
   830   838   840   1   1.0956e+02   3.9246e+02 ;    C58 - C60    - H98
   830   838   841   1   1.1019e+02   7.0793e+02 ;    C58 - C60    - O47
   831   828   833   1   1.0956e+02   3.9246e+02 ;    C59 - C56    - H93
   831   828   843   1   1.1019e+02   7.0793e+02 ;    C59 - C56    - O48
   831   847   848   1   1.0726e+02   4.1003e+02 ;    C59 - O50    - H102
   832   829   845   1   1.1026e+02   5.2300e+02 ;    H92 - C57    - O49
   833   828   843   1   1.1026e+02   5.2300e+02 ;    H93 - C56    - O48
   834   830   837   1   1.0978e+02   5.2216e+02 ;    H94 - C58    - O46
   834   830   838   1   1.0956e+02   3.9246e+02 ;    H94 - C58    - C60
   835   831   837   1   1.0958e+02   5.2216e+02 ;    H95 - C59    - O46
   835   831   847   1   1.0943e+02   5.2551e+02 ;    H95 - C59    - O50
   837   830   838   1   1.0797e+02   7.1379e+02 ;    O46 - C58    - C60
   837   831   847   1   1.0938e+02   9.2634e+02 ;    O46 - C59    - O50
   838   841   842   1   1.0726e+02   4.1003e+02 ;    C60 - O47    - H99
   839   838   840   1   1.0846e+02   3.2468e+02 ;    H97 - C60    - H98
   839   838   841   1   1.1026e+02   5.2300e+02 ;    H97 - C60    - O47
   840   838   841   1   1.1026e+02   5.2300e+02 ;    H98 - C60    - O47
   849   850   852   1   1.0980e+02   3.9162e+02 ;     H1 - C1     - C3
   849   850   853   1   1.0980e+02   3.9162e+02 ;     H1 - C1     - C4
   849   850   856   1   1.0758e+02   3.2635e+02 ;     H1 - C1     - H3
   850   852   859   1   1.0956e+02   3.9246e+02 ;     C1 - C3     - H6
   850   852   864   1   1.0797e+02   7.1379e+02 ;     C1 - C3     - O3
   850   852   865   1   1.1151e+02   5.4308e+02 ;     C1 - C3     - C6
   850   853   854   1   1.1151e+02   5.4308e+02 ;     C1 - C4     - C5
   850   853   857   1   1.0956e+02   3.9246e+02 ;     C1 - C4     - H4
   850   853   860   1   1.1019e+02   7.0793e+02 ;     C1 - C4     - O1
   851   854   853   1   1.1151e+02   5.4308e+02 ;     C2 - C5     - C4
   851   854   858   1   1.0956e+02   3.9246e+02 ;     C2 - C5     - H5
   851   854   862   1   1.1019e+02   7.0793e+02 ;     C2 - C5     - O2
   851   864   852   1   1.1248e+02   5.5480e+02 ;     C2 - O3     - C3
   851   870   871   1   1.1248e+02   5.5480e+02 ;     C2 - O5     - C7
   852   850   853   1   1.1151e+02   5.4308e+02 ;     C3 - C1     - C4
   852   850   856   1   1.0980e+02   3.9162e+02 ;     C3 - C1     - H3
   852   865   866   1   1.0956e+02   3.9246e+02 ;     C3 - C6     - H9
   852   865   867   1   1.0956e+02   3.9246e+02 ;     C3 - C6     - H10
   852   865   868   1   1.1019e+02   7.0793e+02 ;     C3 - C6     - O4
   853   850   856   1   1.0980e+02   3.9162e+02 ;     C4 - C1     - H3
   853   854   858   1   1.0956e+02   3.9246e+02 ;     C4 - C5     - H5
   853   854   862   1   1.1019e+02   7.0793e+02 ;     C4 - C5     - O2
   853   860   861   1   1.0726e+02   4.1003e+02 ;     C4 - O1     - H7
   854   851   855   1   1.1022e+02   3.9079e+02 ;     C5 - C2     - H2
   854   851   864   1   1.0797e+02   7.1379e+02 ;     C5 - C2     - O3
   854   851   870   1   1.0797e+02   7.1379e+02 ;     C5 - C2     - O5
   854   853   857   1   1.0956e+02   3.9246e+02 ;     C5 - C4     - H4
   854   853   860   1   1.1019e+02   7.0793e+02 ;     C5 - C4     - O1
   854   862   863   1   1.0726e+02   4.1003e+02 ;     C5 - O2     - H8
   855   851   864   1   1.0958e+02   5.2216e+02 ;     H2 - C2     - O3
   855   851   870   1   1.0958e+02   5.2216e+02 ;     H2 - C2     - O5
   857   853   860   1   1.1026e+02   5.2300e+02 ;     H4 - C4     - O1
   858   854   862   1   1.1026e+02   5.2300e+02 ;     H5 - C5     - O2
   859   852   864   1   1.0978e+02   5.2216e+02 ;     H6 - C3     - O3
   859   852   865   1   1.0956e+02   3.9246e+02 ;     H6 - C3     - C6
   864   851   870   1   1.0829e+02   9.2801e+02 ;     O3 - C2     - O5
   864   852   865   1   1.0797e+02   7.1379e+02 ;     O3 - C3     - C6
   865   868   869   1   1.0726e+02   4.1003e+02 ;     C6 - O4     - H11
   866   865   867   1   1.0846e+02   3.2468e+02 ;     H9 - C6     - H10
   866   865   868   1   1.1026e+02   5.2300e+02 ;     H9 - C6     - O4
   867   865   868   1   1.1026e+02   5.2300e+02 ;    H10 - C6     - O4
   870   871   873   1   1.0797e+02   7.1379e+02 ;     O5 - C7     - C9
   870   871   874   1   1.0797e+02   7.1379e+02 ;     O5 - C7     - C10
   870   871   880   1   1.0978e+02   5.2216e+02 ;     O5 - C7     - H16
   871   873   872   1   1.1151e+02   5.4308e+02 ;     C7 - C9     - C8
   871   873   876   1   1.0956e+02   3.9246e+02 ;     C7 - C9     - H12
   871   873   889   1   1.1019e+02   7.0793e+02 ;     C7 - C9     - O9
   871   874   878   1   1.0956e+02   3.9246e+02 ;     C7 - C10    - H14
   871   874   881   1   1.0797e+02   7.1379e+02 ;     C7 - C10    - O6
   871   874   882   1   1.1151e+02   5.4308e+02 ;     C7 - C10    - C12
   872   873   876   1   1.0956e+02   3.9246e+02 ;     C8 - C9     - H12
   872   873   889   1   1.1019e+02   7.0793e+02 ;     C8 - C9     - O9
   872   875   879   1   1.1022e+02   3.9079e+02 ;     C8 - C11    - H15
   872   875   881   1   1.0797e+02   7.1379e+02 ;     C8 - C11    - O6
   872   875   891   1   1.0797e+02   7.1379e+02 ;     C8 - C11    - O10
   872   887   888   1   1.0726e+02   4.1003e+02 ;     C8 - O8     - H20
   873   871   874   1   1.1151e+02   5.4308e+02 ;     C9 - C7     - C10
   873   871   880   1   1.0956e+02   3.9246e+02 ;     C9 - C7     - H16
   873   872   875   1   1.1151e+02   5.4308e+02 ;     C9 - C8     - C11
   873   872   877   1   1.0956e+02   3.9246e+02 ;     C9 - C8     - H13
   873   872   887   1   1.1019e+02   7.0793e+02 ;     C9 - C8     - O8
   873   889   890   1   1.0726e+02   4.1003e+02 ;     C9 - O9     - H21
   874   871   880   1   1.0956e+02   3.9246e+02 ;    C10 - C7     - H16
   874   881   875   1   1.1248e+02   5.5480e+02 ;    C10 - O6     - C11
   874   882   883   1   1.0956e+02   3.9246e+02 ;    C10 - C12    - H17
   874   882   884   1   1.0956e+02   3.9246e+02 ;    C10 - C12    - H18
   874   882   885   1   1.1019e+02   7.0793e+02 ;    C10 - C12    - O7
   875   872   877   1   1.0956e+02   3.9246e+02 ;    C11 - C8     - H13
   875   872   887   1   1.1019e+02   7.0793e+02 ;    C11 - C8     - O8
   875   891   892   1   1.1248e+02   5.5480e+02 ;    C11 - O10    - C13
   876   873   889   1   1.1026e+02   5.2300e+02 ;    H12 - C9     - O9
   877   872   887   1   1.1026e+02   5.2300e+02 ;    H13 - C8     - O8
   878   874   881   1   1.0978e+02   5.2216e+02 ;    H14 - C10    - O6
   878   874   882   1   1.0956e+02   3.9246e+02 ;    H14 - C10    - C12
   879   875   881   1   1.0958e+02   5.2216e+02 ;    H15 - C11    - O6
   879   875   891   1   1.0958e+02   5.2216e+02 ;    H15 - C11    - O10
   881   874   882   1   1.0797e+02   7.1379e+02 ;     O6 - C10    - C12
   881   875   891   1   1.0829e+02   9.2801e+02 ;     O6 - C11    - O10
   882   885   886   1   1.0726e+02   4.1003e+02 ;    C12 - O7     - H19
   883   882   884   1   1.0846e+02   3.2468e+02 ;    H17 - C12    - H18
   883   882   885   1   1.1026e+02   5.2300e+02 ;    H17 - C12    - O7
   884   882   885   1   1.1026e+02   5.2300e+02 ;    H18 - C12    - O7
   891   892   894   1   1.0797e+02   7.1379e+02 ;    O10 - C13    - C15
   891   892   895   1   1.0797e+02   7.1379e+02 ;    O10 - C13    - C16
   891   892   898   1   1.0978e+02   5.2216e+02 ;    O10 - C13    - H23
   892   894   901   1   1.0956e+02   3.9246e+02 ;    C13 - C15    - H26
   892   894   906   1   1.0797e+02   7.1379e+02 ;    C13 - C15    - O13
   892   894   907   1   1.1151e+02   5.4308e+02 ;    C13 - C15    - C18
   892   895   896   1   1.1151e+02   5.4308e+02 ;    C13 - C16    - C17
   892   895   899   1   1.0956e+02   3.9246e+02 ;    C13 - C16    - H24
   892   895   902   1   1.1019e+02   7.0793e+02 ;    C13 - C16    - O11
   893   896   895   1   1.1151e+02   5.4308e+02 ;    C14 - C17    - C16
   893   896   900   1   1.0956e+02   3.9246e+02 ;    C14 - C17    - H25
   893   896   904   1   1.1019e+02   7.0793e+02 ;    C14 - C17    - O12
   893   906   894   1   1.1248e+02   5.5480e+02 ;    C14 - O13    - C15
   893   912   913   1   1.1248e+02   5.5480e+02 ;    C14 - O15    - C19
   894   892   895   1   1.1151e+02   5.4308e+02 ;    C15 - C13    - C16
   894   892   898   1   1.0956e+02   3.9246e+02 ;    C15 - C13    - H23
   894   907   908   1   1.0956e+02   3.9246e+02 ;    C15 - C18    - H29
   894   907   909   1   1.0956e+02   3.9246e+02 ;    C15 - C18    - H30
   894   907   910   1   1.1019e+02   7.0793e+02 ;    C15 - C18    - O14
   895   892   898   1   1.0956e+02   3.9246e+02 ;    C16 - C13    - H23
   895   896   900   1   1.0956e+02   3.9246e+02 ;    C16 - C17    - H25
   895   896   904   1   1.1019e+02   7.0793e+02 ;    C16 - C17    - O12
   895   902   903   1   1.0726e+02   4.1003e+02 ;    C16 - O11    - H27
   896   893   897   1   1.1022e+02   3.9079e+02 ;    C17 - C14    - H22
   896   893   906   1   1.0797e+02   7.1379e+02 ;    C17 - C14    - O13
   896   893   912   1   1.0797e+02   7.1379e+02 ;    C17 - C14    - O15
   896   895   899   1   1.0956e+02   3.9246e+02 ;    C17 - C16    - H24
   896   895   902   1   1.1019e+02   7.0793e+02 ;    C17 - C16    - O11
   896   904   905   1   1.0726e+02   4.1003e+02 ;    C17 - O12    - H28
   897   893   906   1   1.0958e+02   5.2216e+02 ;    H22 - C14    - O13
   897   893   912   1   1.0958e+02   5.2216e+02 ;    H22 - C14    - O15
   899   895   902   1   1.1026e+02   5.2300e+02 ;    H24 - C16    - O11
   900   896   904   1   1.1026e+02   5.2300e+02 ;    H25 - C17    - O12
   901   894   906   1   1.0978e+02   5.2216e+02 ;    H26 - C15    - O13
   901   894   907   1   1.0956e+02   3.9246e+02 ;    H26 - C15    - C18
   906   893   912   1   1.0829e+02   9.2801e+02 ;    O13 - C14    - O15
   906   894   907   1   1.0797e+02   7.1379e+02 ;    O13 - C15    - C18
   907   910   911   1   1.0726e+02   4.1003e+02 ;    C18 - O14    - H31
   908   907   909   1   1.0846e+02   3.2468e+02 ;    H29 - C18    - H30
   908   907   910   1   1.1026e+02   5.2300e+02 ;    H29 - C18    - O14
   909   907   910   1   1.1026e+02   5.2300e+02 ;    H30 - C18    - O14
   912   913   915   1   1.0797e+02   7.1379e+02 ;    O15 - C19    - C21
   912   913   916   1   1.0797e+02   7.1379e+02 ;    O15 - C19    - C22
   912   913   922   1   1.0978e+02   5.2216e+02 ;    O15 - C19    - H36
   913   915   914   1   1.1151e+02   5.4308e+02 ;    C19 - C21    - C20
   913   915   918   1   1.0956e+02   3.9246e+02 ;    C19 - C21    - H32
   913   915   931   1   1.1019e+02   7.0793e+02 ;    C19 - C21    - O19
   913   916   920   1   1.0956e+02   3.9246e+02 ;    C19 - C22    - H34
   913   916   923   1   1.0797e+02   7.1379e+02 ;    C19 - C22    - O16
   913   916   924   1   1.1151e+02   5.4308e+02 ;    C19 - C22    - C24
   914   915   918   1   1.0956e+02   3.9246e+02 ;    C20 - C21    - H32
   914   915   931   1   1.1019e+02   7.0793e+02 ;    C20 - C21    - O19
   914   917   921   1   1.1022e+02   3.9079e+02 ;    C20 - C23    - H35
   914   917   923   1   1.0797e+02   7.1379e+02 ;    C20 - C23    - O16
   914   917   933   1   1.0797e+02   7.1379e+02 ;    C20 - C23    - O20
   914   929   930   1   1.0726e+02   4.1003e+02 ;    C20 - O18    - H40
   915   913   916   1   1.1151e+02   5.4308e+02 ;    C21 - C19    - C22
   915   913   922   1   1.0956e+02   3.9246e+02 ;    C21 - C19    - H36
   915   914   917   1   1.1151e+02   5.4308e+02 ;    C21 - C20    - C23
   915   914   919   1   1.0956e+02   3.9246e+02 ;    C21 - C20    - H33
   915   914   929   1   1.1019e+02   7.0793e+02 ;    C21 - C20    - O18
   915   931   932   1   1.0726e+02   4.1003e+02 ;    C21 - O19    - H41
   916   913   922   1   1.0956e+02   3.9246e+02 ;    C22 - C19    - H36
   916   923   917   1   1.1248e+02   5.5480e+02 ;    C22 - O16    - C23
   916   924   925   1   1.0956e+02   3.9246e+02 ;    C22 - C24    - H37
   916   924   926   1   1.0956e+02   3.9246e+02 ;    C22 - C24    - H38
   916   924   927   1   1.1019e+02   7.0793e+02 ;    C22 - C24    - O17
   917   914   919   1   1.0956e+02   3.9246e+02 ;    C23 - C20    - H33
   917   914   929   1   1.1019e+02   7.0793e+02 ;    C23 - C20    - O18
   917   933   934   1   1.1248e+02   5.5480e+02 ;    C23 - O20    - C25
   918   915   931   1   1.1026e+02   5.2300e+02 ;    H32 - C21    - O19
   919   914   929   1   1.1026e+02   5.2300e+02 ;    H33 - C20    - O18
   920   916   923   1   1.0978e+02   5.2216e+02 ;    H34 - C22    - O16
   920   916   924   1   1.0956e+02   3.9246e+02 ;    H34 - C22    - C24
   921   917   923   1   1.0958e+02   5.2216e+02 ;    H35 - C23    - O16
   921   917   933   1   1.0958e+02   5.2216e+02 ;    H35 - C23    - O20
   923   916   924   1   1.0797e+02   7.1379e+02 ;    O16 - C22    - C24
   923   917   933   1   1.0829e+02   9.2801e+02 ;    O16 - C23    - O20
   924   927   928   1   1.0726e+02   4.1003e+02 ;    C24 - O17    - H39
   925   924   926   1   1.0846e+02   3.2468e+02 ;    H37 - C24    - H38
   925   924   927   1   1.1026e+02   5.2300e+02 ;    H37 - C24    - O17
   926   924   927   1   1.1026e+02   5.2300e+02 ;    H38 - C24    - O17
   933   934   936   1   1.0797e+02   7.1379e+02 ;    O20 - C25    - C27
   933   934   937   1   1.0797e+02   7.1379e+02 ;    O20 - C25    - C28
   933   934   940   1   1.0978e+02   5.2216e+02 ;    O20 - C25    - H43
   934   936   943   1   1.0956e+02   3.9246e+02 ;    C25 - C27    - H46
   934   936   948   1   1.0797e+02   7.1379e+02 ;    C25 - C27    - O23
   934   936   949   1   1.1151e+02   5.4308e+02 ;    C25 - C27    - C30
   934   937   938   1   1.1151e+02   5.4308e+02 ;    C25 - C28    - C29
   934   937   941   1   1.0956e+02   3.9246e+02 ;    C25 - C28    - H44
   934   937   944   1   1.1019e+02   7.0793e+02 ;    C25 - C28    - O21
   935   938   937   1   1.1151e+02   5.4308e+02 ;    C26 - C29    - C28
   935   938   942   1   1.0956e+02   3.9246e+02 ;    C26 - C29    - H45
   935   938   946   1   1.1019e+02   7.0793e+02 ;    C26 - C29    - O22
   935   948   936   1   1.1248e+02   5.5480e+02 ;    C26 - O23    - C27
   935   954   955   1   1.1248e+02   5.5480e+02 ;    C26 - O25    - C31
   936   934   937   1   1.1151e+02   5.4308e+02 ;    C27 - C25    - C28
   936   934   940   1   1.0956e+02   3.9246e+02 ;    C27 - C25    - H43
   936   949   950   1   1.0956e+02   3.9246e+02 ;    C27 - C30    - H49
   936   949   951   1   1.0956e+02   3.9246e+02 ;    C27 - C30    - H50
   936   949   952   1   1.1019e+02   7.0793e+02 ;    C27 - C30    - O24
   937   934   940   1   1.0956e+02   3.9246e+02 ;    C28 - C25    - H43
   937   938   942   1   1.0956e+02   3.9246e+02 ;    C28 - C29    - H45
   937   938   946   1   1.1019e+02   7.0793e+02 ;    C28 - C29    - O22
   937   944   945   1   1.0726e+02   4.1003e+02 ;    C28 - O21    - H47
   938   935   939   1   1.1022e+02   3.9079e+02 ;    C29 - C26    - H42
   938   935   948   1   1.0797e+02   7.1379e+02 ;    C29 - C26    - O23
   938   935   954   1   1.0797e+02   7.1379e+02 ;    C29 - C26    - O25
   938   937   941   1   1.0956e+02   3.9246e+02 ;    C29 - C28    - H44
   938   937   944   1   1.1019e+02   7.0793e+02 ;    C29 - C28    - O21
   938   946   947   1   1.0726e+02   4.1003e+02 ;    C29 - O22    - H48
   939   935   948   1   1.0958e+02   5.2216e+02 ;    H42 - C26    - O23
   939   935   954   1   1.0958e+02   5.2216e+02 ;    H42 - C26    - O25
   941   937   944   1   1.1026e+02   5.2300e+02 ;    H44 - C28    - O21
   942   938   946   1   1.1026e+02   5.2300e+02 ;    H45 - C29    - O22
   943   936   948   1   1.0978e+02   5.2216e+02 ;    H46 - C27    - O23
   943   936   949   1   1.0956e+02   3.9246e+02 ;    H46 - C27    - C30
   948   935   954   1   1.0829e+02   9.2801e+02 ;    O23 - C26    - O25
   948   936   949   1   1.0797e+02   7.1379e+02 ;    O23 - C27    - C30
   949   952   953   1   1.0726e+02   4.1003e+02 ;    C30 - O24    - H51
   950   949   951   1   1.0846e+02   3.2468e+02 ;    H49 - C30    - H50
   950   949   952   1   1.1026e+02   5.2300e+02 ;    H49 - C30    - O24
   951   949   952   1   1.1026e+02   5.2300e+02 ;    H50 - C30    - O24
   954   955   957   1   1.0797e+02   7.1379e+02 ;    O25 - C31    - C33
   954   955   958   1   1.0797e+02   7.1379e+02 ;    O25 - C31    - C34
   954   955   964   1   1.0978e+02   5.2216e+02 ;    O25 - C31    - H56
   955   957   956   1   1.1151e+02   5.4308e+02 ;    C31 - C33    - C32
   955   957   960   1   1.0956e+02   3.9246e+02 ;    C31 - C33    - H52
   955   957   973   1   1.1019e+02   7.0793e+02 ;    C31 - C33    - O29
   955   958   962   1   1.0956e+02   3.9246e+02 ;    C31 - C34    - H54
   955   958   965   1   1.0797e+02   7.1379e+02 ;    C31 - C34    - O26
   955   958   966   1   1.1151e+02   5.4308e+02 ;    C31 - C34    - C36
   956   957   960   1   1.0956e+02   3.9246e+02 ;    C32 - C33    - H52
   956   957   973   1   1.1019e+02   7.0793e+02 ;    C32 - C33    - O29
   956   959   963   1   1.1022e+02   3.9079e+02 ;    C32 - C35    - H55
   956   959   965   1   1.0797e+02   7.1379e+02 ;    C32 - C35    - O26
   956   959   975   1   1.0797e+02   7.1379e+02 ;    C32 - C35    - O30
   956   971   972   1   1.0726e+02   4.1003e+02 ;    C32 - O28    - H60
   957   955   958   1   1.1151e+02   5.4308e+02 ;    C33 - C31    - C34
   957   955   964   1   1.0956e+02   3.9246e+02 ;    C33 - C31    - H56
   957   956   959   1   1.1151e+02   5.4308e+02 ;    C33 - C32    - C35
   957   956   961   1   1.0956e+02   3.9246e+02 ;    C33 - C32    - H53
   957   956   971   1   1.1019e+02   7.0793e+02 ;    C33 - C32    - O28
   957   973   974   1   1.0726e+02   4.1003e+02 ;    C33 - O29    - H61
   958   955   964   1   1.0956e+02   3.9246e+02 ;    C34 - C31    - H56
   958   965   959   1   1.1248e+02   5.5480e+02 ;    C34 - O26    - C35
   958   966   967   1   1.0956e+02   3.9246e+02 ;    C34 - C36    - H57
   958   966   968   1   1.0956e+02   3.9246e+02 ;    C34 - C36    - H58
   958   966   969   1   1.1019e+02   7.0793e+02 ;    C34 - C36    - O27
   959   956   961   1   1.0956e+02   3.9246e+02 ;    C35 - C32    - H53
   959   956   971   1   1.1019e+02   7.0793e+02 ;    C35 - C32    - O28
   959   975   976   1   1.1248e+02   5.5480e+02 ;    C35 - O30    - C37
   960   957   973   1   1.1026e+02   5.2300e+02 ;    H52 - C33    - O29
   961   956   971   1   1.1026e+02   5.2300e+02 ;    H53 - C32    - O28
   962   958   965   1   1.0978e+02   5.2216e+02 ;    H54 - C34    - O26
   962   958   966   1   1.0956e+02   3.9246e+02 ;    H54 - C34    - C36
   963   959   965   1   1.0958e+02   5.2216e+02 ;    H55 - C35    - O26
   963   959   975   1   1.0958e+02   5.2216e+02 ;    H55 - C35    - O30
   965   958   966   1   1.0797e+02   7.1379e+02 ;    O26 - C34    - C36
   965   959   975   1   1.0829e+02   9.2801e+02 ;    O26 - C35    - O30
   966   969   970   1   1.0726e+02   4.1003e+02 ;    C36 - O27    - H59
   967   966   968   1   1.0846e+02   3.2468e+02 ;    H57 - C36    - H58
   967   966   969   1   1.1026e+02   5.2300e+02 ;    H57 - C36    - O27
   968   966   969   1   1.1026e+02   5.2300e+02 ;    H58 - C36    - O27
   975   976   978   1   1.0797e+02   7.1379e+02 ;    O30 - C37    - C39
   975   976   979   1   1.0797e+02   7.1379e+02 ;    O30 - C37    - C40
   975   976   982   1   1.0978e+02   5.2216e+02 ;    O30 - C37    - H63
   976   978   985   1   1.0956e+02   3.9246e+02 ;    C37 - C39    - H66
   976   978   990   1   1.0797e+02   7.1379e+02 ;    C37 - C39    - O33
   976   978   991   1   1.1151e+02   5.4308e+02 ;    C37 - C39    - C42
   976   979   980   1   1.1151e+02   5.4308e+02 ;    C37 - C40    - C41
   976   979   983   1   1.0956e+02   3.9246e+02 ;    C37 - C40    - H64
   976   979   986   1   1.1019e+02   7.0793e+02 ;    C37 - C40    - O31
   977   980   979   1   1.1151e+02   5.4308e+02 ;    C38 - C41    - C40
   977   980   984   1   1.0956e+02   3.9246e+02 ;    C38 - C41    - H65
   977   980   988   1   1.1019e+02   7.0793e+02 ;    C38 - C41    - O32
   977   990   978   1   1.1248e+02   5.5480e+02 ;    C38 - O33    - C39
   977   996   997   1   1.1248e+02   5.5480e+02 ;    C38 - O35    - C43
   978   976   979   1   1.1151e+02   5.4308e+02 ;    C39 - C37    - C40
   978   976   982   1   1.0956e+02   3.9246e+02 ;    C39 - C37    - H63
   978   991   992   1   1.0956e+02   3.9246e+02 ;    C39 - C42    - H69
   978   991   993   1   1.0956e+02   3.9246e+02 ;    C39 - C42    - H70
   978   991   994   1   1.1019e+02   7.0793e+02 ;    C39 - C42    - O34
   979   976   982   1   1.0956e+02   3.9246e+02 ;    C40 - C37    - H63
   979   980   984   1   1.0956e+02   3.9246e+02 ;    C40 - C41    - H65
   979   980   988   1   1.1019e+02   7.0793e+02 ;    C40 - C41    - O32
   979   986   987   1   1.0726e+02   4.1003e+02 ;    C40 - O31    - H67
   980   977   981   1   1.1022e+02   3.9079e+02 ;    C41 - C38    - H62
   980   977   990   1   1.0797e+02   7.1379e+02 ;    C41 - C38    - O33
   980   977   996   1   1.0797e+02   7.1379e+02 ;    C41 - C38    - O35
   980   979   983   1   1.0956e+02   3.9246e+02 ;    C41 - C40    - H64
   980   979   986   1   1.1019e+02   7.0793e+02 ;    C41 - C40    - O31
   980   988   989   1   1.0726e+02   4.1003e+02 ;    C41 - O32    - H68
   981   977   990   1   1.0958e+02   5.2216e+02 ;    H62 - C38    - O33
   981   977   996   1   1.0958e+02   5.2216e+02 ;    H62 - C38    - O35
   983   979   986   1   1.1026e+02   5.2300e+02 ;    H64 - C40    - O31
   984   980   988   1   1.1026e+02   5.2300e+02 ;    H65 - C41    - O32
   985   978   990   1   1.0978e+02   5.2216e+02 ;    H66 - C39    - O33
   985   978   991   1   1.0956e+02   3.9246e+02 ;    H66 - C39    - C42
   990   977   996   1   1.0829e+02   9.2801e+02 ;    O33 - C38    - O35
   990   978   991   1   1.0797e+02   7.1379e+02 ;    O33 - C39    - C42
   991   994   995   1   1.0726e+02   4.1003e+02 ;    C42 - O34    - H71
   992   991   993   1   1.0846e+02   3.2468e+02 ;    H69 - C42    - H70
   992   991   994   1   1.1026e+02   5.2300e+02 ;    H69 - C42    - O34
   993   991   994   1   1.1026e+02   5.2300e+02 ;    H70 - C42    - O34
   996   997   999   1   1.0797e+02   7.1379e+02 ;    O35 - C43    - C45
   996   997  1000   1   1.0797e+02   7.1379e+02 ;    O35 - C43    - C46
   996   997  1006   1   1.0978e+02   5.2216e+02 ;    O35 - C43    - H76
   997   999   998   1   1.1151e+02   5.4308e+02 ;    C43 - C45    - C44
   997   999  1002   1   1.0956e+02   3.9246e+02 ;    C43 - C45    - H72
   997   999  1015   1   1.1019e+02   7.0793e+02 ;    C43 - C45    - O39
   997  1000  1004   1   1.0956e+02   3.9246e+02 ;    C43 - C46    - H74
   997  1000  1007   1   1.0797e+02   7.1379e+02 ;    C43 - C46    - O36
   997  1000  1008   1   1.1151e+02   5.4308e+02 ;    C43 - C46    - C48
   998   999  1002   1   1.0956e+02   3.9246e+02 ;    C44 - C45    - H72
   998   999  1015   1   1.1019e+02   7.0793e+02 ;    C44 - C45    - O39
   998  1001  1005   1   1.1022e+02   3.9079e+02 ;    C44 - C47    - H75
   998  1001  1007   1   1.0797e+02   7.1379e+02 ;    C44 - C47    - O36
   998  1001  1017   1   1.0797e+02   7.1379e+02 ;    C44 - C47    - O40
   998  1013  1014   1   1.0726e+02   4.1003e+02 ;    C44 - O38    - H80
   999   997  1000   1   1.1151e+02   5.4308e+02 ;    C45 - C43    - C46
   999   997  1006   1   1.0956e+02   3.9246e+02 ;    C45 - C43    - H76
   999   998  1001   1   1.1151e+02   5.4308e+02 ;    C45 - C44    - C47
   999   998  1003   1   1.0956e+02   3.9246e+02 ;    C45 - C44    - H73
   999   998  1013   1   1.1019e+02   7.0793e+02 ;    C45 - C44    - O38
   999  1015  1016   1   1.0726e+02   4.1003e+02 ;    C45 - O39    - H81
  1000   997  1006   1   1.0956e+02   3.9246e+02 ;    C46 - C43    - H76
  1000  1007  1001   1   1.1248e+02   5.5480e+02 ;    C46 - O36    - C47
  1000  1008  1009   1   1.0956e+02   3.9246e+02 ;    C46 - C48    - H77
  1000  1008  1010   1   1.0956e+02   3.9246e+02 ;    C46 - C48    - H78
  1000  1008  1011   1   1.1019e+02   7.0793e+02 ;    C46 - C48    - O37
  1001   998  1003   1   1.0956e+02   3.9246e+02 ;    C47 - C44    - H73
  1001   998  1013   1   1.1019e+02   7.0793e+02 ;    C47 - C44    - O38
  1001  1017  1018   1   1.1248e+02   5.5480e+02 ;    C47 - O40    - C49
  1002   999  1015   1   1.1026e+02   5.2300e+02 ;    H72 - C45    - O39
  1003   998  1013   1   1.1026e+02   5.2300e+02 ;    H73 - C44    - O38
  1004  1000  1007   1   1.0978e+02   5.2216e+02 ;    H74 - C46    - O36
  1004  1000  1008   1   1.0956e+02   3.9246e+02 ;    H74 - C46    - C48
  1005  1001  1007   1   1.0958e+02   5.2216e+02 ;    H75 - C47    - O36
  1005  1001  1017   1   1.0958e+02   5.2216e+02 ;    H75 - C47    - O40
  1007  1000  1008   1   1.0797e+02   7.1379e+02 ;    O36 - C46    - C48
  1007  1001  1017   1   1.0829e+02   9.2801e+02 ;    O36 - C47    - O40
  1008  1011  1012   1   1.0726e+02   4.1003e+02 ;    C48 - O37    - H79
  1009  1008  1010   1   1.0846e+02   3.2468e+02 ;    H77 - C48    - H78
  1009  1008  1011   1   1.1026e+02   5.2300e+02 ;    H77 - C48    - O37
  1010  1008  1011   1   1.1026e+02   5.2300e+02 ;    H78 - C48    - O37
  1017  1018  1020   1   1.0797e+02   7.1379e+02 ;    O40 - C49    - C51
  1017  1018  1021   1   1.0797e+02   7.1379e+02 ;    O40 - C49    - C52
  1017  1018  1024   1   1.0978e+02   5.2216e+02 ;    O40 - C49    - H83
  1018  1020  1027   1   1.0956e+02   3.9246e+02 ;    C49 - C51    - H86
  1018  1020  1032   1   1.0797e+02   7.1379e+02 ;    C49 - C51    - O43
  1018  1020  1033   1   1.1151e+02   5.4308e+02 ;    C49 - C51    - C54
  1018  1021  1022   1   1.1151e+02   5.4308e+02 ;    C49 - C52    - C53
  1018  1021  1025   1   1.0956e+02   3.9246e+02 ;    C49 - C52    - H84
  1018  1021  1028   1   1.1019e+02   7.0793e+02 ;    C49 - C52    - O41
  1019  1022  1021   1   1.1151e+02   5.4308e+02 ;    C50 - C53    - C52
  1019  1022  1026   1   1.0956e+02   3.9246e+02 ;    C50 - C53    - H85
  1019  1022  1030   1   1.1019e+02   7.0793e+02 ;    C50 - C53    - O42
  1019  1032  1020   1   1.1248e+02   5.5480e+02 ;    C50 - O43    - C51
  1019  1038  1039   1   1.1248e+02   5.5480e+02 ;    C50 - O45    - C55
  1020  1018  1021   1   1.1151e+02   5.4308e+02 ;    C51 - C49    - C52
  1020  1018  1024   1   1.0956e+02   3.9246e+02 ;    C51 - C49    - H83
  1020  1033  1034   1   1.0956e+02   3.9246e+02 ;    C51 - C54    - H89
  1020  1033  1035   1   1.0956e+02   3.9246e+02 ;    C51 - C54    - H90
  1020  1033  1036   1   1.1019e+02   7.0793e+02 ;    C51 - C54    - O44
  1021  1018  1024   1   1.0956e+02   3.9246e+02 ;    C52 - C49    - H83
  1021  1022  1026   1   1.0956e+02   3.9246e+02 ;    C52 - C53    - H85
  1021  1022  1030   1   1.1019e+02   7.0793e+02 ;    C52 - C53    - O42
  1021  1028  1029   1   1.0726e+02   4.1003e+02 ;    C52 - O41    - H87
  1022  1019  1023   1   1.1022e+02   3.9079e+02 ;    C53 - C50    - H82
  1022  1019  1032   1   1.0797e+02   7.1379e+02 ;    C53 - C50    - O43
  1022  1019  1038   1   1.0797e+02   7.1379e+02 ;    C53 - C50    - O45
  1022  1021  1025   1   1.0956e+02   3.9246e+02 ;    C53 - C52    - H84
  1022  1021  1028   1   1.1019e+02   7.0793e+02 ;    C53 - C52    - O41
  1022  1030  1031   1   1.0726e+02   4.1003e+02 ;    C53 - O42    - H88
  1023  1019  1032   1   1.0958e+02   5.2216e+02 ;    H82 - C50    - O43
  1023  1019  1038   1   1.0958e+02   5.2216e+02 ;    H82 - C50    - O45
  1025  1021  1028   1   1.1026e+02   5.2300e+02 ;    H84 - C52    - O41
  1026  1022  1030   1   1.1026e+02   5.2300e+02 ;    H85 - C53    - O42
  1027  1020  1032   1   1.0978e+02   5.2216e+02 ;    H86 - C51    - O43
  1027  1020  1033   1   1.0956e+02   3.9246e+02 ;    H86 - C51    - C54
  1032  1019  1038   1   1.0829e+02   9.2801e+02 ;    O43 - C50    - O45
  1032  1020  1033   1   1.0797e+02   7.1379e+02 ;    O43 - C51    - C54
  1033  1036  1037   1   1.0726e+02   4.1003e+02 ;    C54 - O44    - H91
  1034  1033  1035   1   1.0846e+02   3.2468e+02 ;    H89 - C54    - H90
  1034  1033  1036   1   1.1026e+02   5.2300e+02 ;    H89 - C54    - O44
  1035  1033  1036   1   1.1026e+02   5.2300e+02 ;    H90 - C54    - O44
  1038  1039  1041   1   1.0797e+02   7.1379e+02 ;    O45 - C55    - C57
  1038  1039  1042   1   1.0797e+02   7.1379e+02 ;    O45 - C55    - C58
  1038  1039  1048   1   1.0978e+02   5.2216e+02 ;    O45 - C55    - H96
  1039  1041  1040   1   1.1151e+02   5.4308e+02 ;    C55 - C57    - C56
  1039  1041  1044   1   1.0956e+02   3.9246e+02 ;    C55 - C57    - H92
  1039  1041  1057   1   1.1019e+02   7.0793e+02 ;    C55 - C57    - O49
  1039  1042  1046   1   1.0956e+02   3.9246e+02 ;    C55 - C58    - H94
  1039  1042  1049   1   1.0797e+02   7.1379e+02 ;    C55 - C58    - O46
  1039  1042  1050   1   1.1151e+02   5.4308e+02 ;    C55 - C58    - C60
  1040  1041  1044   1   1.0956e+02   3.9246e+02 ;    C56 - C57    - H92
  1040  1041  1057   1   1.1019e+02   7.0793e+02 ;    C56 - C57    - O49
  1040  1043  1047   1   1.1022e+02   3.9079e+02 ;    C56 - C59    - H95
  1040  1043  1049   1   1.0797e+02   7.1379e+02 ;    C56 - C59    - O46
  1040  1043  1059   1   1.1019e+02   7.0793e+02 ;    C56 - C59    - O50
  1040  1055  1056   1   1.0726e+02   4.1003e+02 ;    C56 - O48    - H100
  1041  1039  1042   1   1.1151e+02   5.4308e+02 ;    C57 - C55    - C58
  1041  1039  1048   1   1.0956e+02   3.9246e+02 ;    C57 - C55    - H96
  1041  1040  1043   1   1.1151e+02   5.4308e+02 ;    C57 - C56    - C59
  1041  1040  1045   1   1.0956e+02   3.9246e+02 ;    C57 - C56    - H93
  1041  1040  1055   1   1.1019e+02   7.0793e+02 ;    C57 - C56    - O48
  1041  1057  1058   1   1.0726e+02   4.1003e+02 ;    C57 - O49    - H101
  1042  1039  1048   1   1.0956e+02   3.9246e+02 ;    C58 - C55    - H96
  1042  1049  1043   1   1.1248e+02   5.5480e+02 ;    C58 - O46    - C59
  1042  1050  1051   1   1.0956e+02   3.9246e+02 ;    C58 - C60    - H97
  1042  1050  1052   1   1.0956e+02   3.9246e+02 ;    C58 - C60    - H98
  1042  1050  1053   1   1.1019e+02   7.0793e+02 ;    C58 - C60    - O47
  1043  1040  1045   1   1.0956e+02   3.9246e+02 ;    C59 - C56    - H93
  1043  1040  1055   1   1.1019e+02   7.0793e+02 ;    C59 - C56    - O48
  1043  1059  1060   1   1.0726e+02   4.1003e+02 ;    C59 - O50    - H102
  1044  1041  1057   1   1.1026e+02   5.2300e+02 ;    H92 - C57    - O49
  1045  1040  1055   1   1.1026e+02   5.2300e+02 ;    H93 - C56    - O48
  1046  1042  1049   1   1.0978e+02   5.2216e+02 ;    H94 - C58    - O46
  1046  1042  1050   1   1.0956e+02   3.9246e+02 ;    H94 - C58    - C60
  1047  1043  1049   1   1.0958e+02   5.2216e+02 ;    H95 - C59    - O46
  1047  1043  1059   1   1.0943e+02   5.2551e+02 ;    H95 - C59    - O50
  1049  1042  1050   1   1.0797e+02   7.1379e+02 ;    O46 - C58    - C60
  1049  1043  1059   1   1.0938e+02   9.2634e+02 ;    O46 - C59    - O50
  1050  1053  1054   1   1.0726e+02   4.1003e+02 ;    C60 - O47    - H99
  1051  1050  1052   1   1.0846e+02   3.2468e+02 ;    H97 - C60    - H98
  1051  1050  1053   1   1.1026e+02   5.2300e+02 ;    H97 - C60    - O47
  1052  1050  1053   1   1.1026e+02   5.2300e+02 ;    H98 - C60    - O47
  1061  1062  1064   1   1.0980e+02   3.9162e+02 ;     H1 - C1     - C3
  1061  1062  1065   1   1.0980e+02   3.9162e+02 ;     H1 - C1     - C4
  1061  1062  1068   1   1.0758e+02   3.2635e+02 ;     H1 - C1     - H3
  1062  1064  1071   1   1.0956e+02   3.9246e+02 ;     C1 - C3     - H6
  1062  1064  1076   1   1.0797e+02   7.1379e+02 ;     C1 - C3     - O3
  1062  1064  1077   1   1.1151e+02   5.4308e+02 ;     C1 - C3     - C6
  1062  1065  1066   1   1.1151e+02   5.4308e+02 ;     C1 - C4     - C5
  1062  1065  1069   1   1.0956e+02   3.9246e+02 ;     C1 - C4     - H4
  1062  1065  1072   1   1.1019e+02   7.0793e+02 ;     C1 - C4     - O1
  1063  1066  1065   1   1.1151e+02   5.4308e+02 ;     C2 - C5     - C4
  1063  1066  1070   1   1.0956e+02   3.9246e+02 ;     C2 - C5     - H5
  1063  1066  1074   1   1.1019e+02   7.0793e+02 ;     C2 - C5     - O2
  1063  1076  1064   1   1.1248e+02   5.5480e+02 ;     C2 - O3     - C3
  1063  1082  1083   1   1.1248e+02   5.5480e+02 ;     C2 - O5     - C7
  1064  1062  1065   1   1.1151e+02   5.4308e+02 ;     C3 - C1     - C4
  1064  1062  1068   1   1.0980e+02   3.9162e+02 ;     C3 - C1     - H3
  1064  1077  1078   1   1.0956e+02   3.9246e+02 ;     C3 - C6     - H9
  1064  1077  1079   1   1.0956e+02   3.9246e+02 ;     C3 - C6     - H10
  1064  1077  1080   1   1.1019e+02   7.0793e+02 ;     C3 - C6     - O4
  1065  1062  1068   1   1.0980e+02   3.9162e+02 ;     C4 - C1     - H3
  1065  1066  1070   1   1.0956e+02   3.9246e+02 ;     C4 - C5     - H5
  1065  1066  1074   1   1.1019e+02   7.0793e+02 ;     C4 - C5     - O2
  1065  1072  1073   1   1.0726e+02   4.1003e+02 ;     C4 - O1     - H7
  1066  1063  1067   1   1.1022e+02   3.9079e+02 ;     C5 - C2     - H2
  1066  1063  1076   1   1.0797e+02   7.1379e+02 ;     C5 - C2     - O3
  1066  1063  1082   1   1.0797e+02   7.1379e+02 ;     C5 - C2     - O5
  1066  1065  1069   1   1.0956e+02   3.9246e+02 ;     C5 - C4     - H4
  1066  1065  1072   1   1.1019e+02   7.0793e+02 ;     C5 - C4     - O1
  1066  1074  1075   1   1.0726e+02   4.1003e+02 ;     C5 - O2     - H8
  1067  1063  1076   1   1.0958e+02   5.2216e+02 ;     H2 - C2     - O3
  1067  1063  1082   1   1.0958e+02   5.2216e+02 ;     H2 - C2     - O5
  1069  1065  1072   1   1.1026e+02   5.2300e+02 ;     H4 - C4     - O1
  1070  1066  1074   1   1.1026e+02   5.2300e+02 ;     H5 - C5     - O2
  1071  1064  1076   1   1.0978e+02   5.2216e+02 ;     H6 - C3     - O3
  1071  1064  1077   1   1.0956e+02   3.9246e+02 ;     H6 - C3     - C6
  1076  1063  1082   1   1.0829e+02   9.2801e+02 ;     O3 - C2     - O5
  1076  1064  1077   1   1.0797e+02   7.1379e+02 ;     O3 - C3     - C6
  1077  1080  1081   1   1.0726e+02   4.1003e+02 ;     C6 - O4     - H11
  1078  1077  1079   1   1.0846e+02   3.2468e+02 ;     H9 - C6     - H10
  1078  1077  1080   1   1.1026e+02   5.2300e+02 ;     H9 - C6     - O4
  1079  1077  1080   1   1.1026e+02   5.2300e+02 ;    H10 - C6     - O4
  1082  1083  1085   1   1.0797e+02   7.1379e+02 ;     O5 - C7     - C9
  1082  1083  1086   1   1.0797e+02   7.1379e+02 ;     O5 - C7     - C10
  1082  1083  1092   1   1.0978e+02   5.2216e+02 ;     O5 - C7     - H16
  1083  1085  1084   1   1.1151e+02   5.4308e+02 ;     C7 - C9     - C8
  1083  1085  1088   1   1.0956e+02   3.9246e+02 ;     C7 - C9     - H12
  1083  1085  1101   1   1.1019e+02   7.0793e+02 ;     C7 - C9     - O9
  1083  1086  1090   1   1.0956e+02   3.9246e+02 ;     C7 - C10    - H14
  1083  1086  1093   1   1.0797e+02   7.1379e+02 ;     C7 - C10    - O6
  1083  1086  1094   1   1.1151e+02   5.4308e+02 ;     C7 - C10    - C12
  1084  1085  1088   1   1.0956e+02   3.9246e+02 ;     C8 - C9     - H12
  1084  1085  1101   1   1.1019e+02   7.0793e+02 ;     C8 - C9     - O9
  1084  1087  1091   1   1.1022e+02   3.9079e+02 ;     C8 - C11    - H15
  1084  1087  1093   1   1.0797e+02   7.1379e+02 ;     C8 - C11    - O6
  1084  1087  1103   1   1.0797e+02   7.1379e+02 ;     C8 - C11    - O10
  1084  1099  1100   1   1.0726e+02   4.1003e+02 ;     C8 - O8     - H20
  1085  1083  1086   1   1.1151e+02   5.4308e+02 ;     C9 - C7     - C10
  1085  1083  1092   1   1.0956e+02   3.9246e+02 ;     C9 - C7     - H16
  1085  1084  1087   1   1.1151e+02   5.4308e+02 ;     C9 - C8     - C11
  1085  1084  1089   1   1.0956e+02   3.9246e+02 ;     C9 - C8     - H13
  1085  1084  1099   1   1.1019e+02   7.0793e+02 ;     C9 - C8     - O8
  1085  1101  1102   1   1.0726e+02   4.1003e+02 ;     C9 - O9     - H21
  1086  1083  1092   1   1.0956e+02   3.9246e+02 ;    C10 - C7     - H16
  1086  1093  1087   1   1.1248e+02   5.5480e+02 ;    C10 - O6     - C11
  1086  1094  1095   1   1.0956e+02   3.9246e+02 ;    C10 - C12    - H17
  1086  1094  1096   1   1.0956e+02   3.9246e+02 ;    C10 - C12    - H18
  1086  1094  1097   1   1.1019e+02   7.0793e+02 ;    C10 - C12    - O7
  1087  1084  1089   1   1.0956e+02   3.9246e+02 ;    C11 - C8     - H13
  1087  1084  1099   1   1.1019e+02   7.0793e+02 ;    C11 - C8     - O8
  1087  1103  1104   1   1.1248e+02   5.5480e+02 ;    C11 - O10    - C13
  1088  1085  1101   1   1.1026e+02   5.2300e+02 ;    H12 - C9     - O9
  1089  1084  1099   1   1.1026e+02   5.2300e+02 ;    H13 - C8     - O8
  1090  1086  1093   1   1.0978e+02   5.2216e+02 ;    H14 - C10    - O6
  1090  1086  1094   1   1.0956e+02   3.9246e+02 ;    H14 - C10    - C12
  1091  1087  1093   1   1.0958e+02   5.2216e+02 ;    H15 - C11    - O6
  1091  1087  1103   1   1.0958e+02   5.2216e+02 ;    H15 - C11    - O10
  1093  1086  1094   1   1.0797e+02   7.1379e+02 ;     O6 - C10    - C12
  1093  1087  1103   1   1.0829e+02   9.2801e+02 ;     O6 - C11    - O10
  1094  1097  1098   1   1.0726e+02   4.1003e+02 ;    C12 - O7     - H19
  1095  1094  1096   1   1.0846e+02   3.2468e+02 ;    H17 - C12    - H18
  1095  1094  1097   1   1.1026e+02   5.2300e+02 ;    H17 - C12    - O7
  1096  1094  1097   1   1.1026e+02   5.2300e+02 ;    H18 - C12    - O7
  1103  1104  1106   1   1.0797e+02   7.1379e+02 ;    O10 - C13    - C15
  1103  1104  1107   1   1.0797e+02   7.1379e+02 ;    O10 - C13    - C16
  1103  1104  1110   1   1.0978e+02   5.2216e+02 ;    O10 - C13    - H23
  1104  1106  1113   1   1.0956e+02   3.9246e+02 ;    C13 - C15    - H26
  1104  1106  1118   1   1.0797e+02   7.1379e+02 ;    C13 - C15    - O13
  1104  1106  1119   1   1.1151e+02   5.4308e+02 ;    C13 - C15    - C18
  1104  1107  1108   1   1.1151e+02   5.4308e+02 ;    C13 - C16    - C17
  1104  1107  1111   1   1.0956e+02   3.9246e+02 ;    C13 - C16    - H24
  1104  1107  1114   1   1.1019e+02   7.0793e+02 ;    C13 - C16    - O11
  1105  1108  1107   1   1.1151e+02   5.4308e+02 ;    C14 - C17    - C16
  1105  1108  1112   1   1.0956e+02   3.9246e+02 ;    C14 - C17    - H25
  1105  1108  1116   1   1.1019e+02   7.0793e+02 ;    C14 - C17    - O12
  1105  1118  1106   1   1.1248e+02   5.5480e+02 ;    C14 - O13    - C15
  1105  1124  1125   1   1.1248e+02   5.5480e+02 ;    C14 - O15    - C19
  1106  1104  1107   1   1.1151e+02   5.4308e+02 ;    C15 - C13    - C16
  1106  1104  1110   1   1.0956e+02   3.9246e+02 ;    C15 - C13    - H23
  1106  1119  1120   1   1.0956e+02   3.9246e+02 ;    C15 - C18    - H29
  1106  1119  1121   1   1.0956e+02   3.9246e+02 ;    C15 - C18    - H30
  1106  1119  1122   1   1.1019e+02   7.0793e+02 ;    C15 - C18    - O14
  1107  1104  1110   1   1.0956e+02   3.9246e+02 ;    C16 - C13    - H23
  1107  1108  1112   1   1.0956e+02   3.9246e+02 ;    C16 - C17    - H25
  1107  1108  1116   1   1.1019e+02   7.0793e+02 ;    C16 - C17    - O12
  1107  1114  1115   1   1.0726e+02   4.1003e+02 ;    C16 - O11    - H27
  1108  1105  1109   1   1.1022e+02   3.9079e+02 ;    C17 - C14    - H22
  1108  1105  1118   1   1.0797e+02   7.1379e+02 ;    C17 - C14    - O13
  1108  1105  1124   1   1.0797e+02   7.1379e+02 ;    C17 - C14    - O15
  1108  1107  1111   1   1.0956e+02   3.9246e+02 ;    C17 - C16    - H24
  1108  1107  1114   1   1.1019e+02   7.0793e+02 ;    C17 - C16    - O11
  1108  1116  1117   1   1.0726e+02   4.1003e+02 ;    C17 - O12    - H28
  1109  1105  1118   1   1.0958e+02   5.2216e+02 ;    H22 - C14    - O13
  1109  1105  1124   1   1.0958e+02   5.2216e+02 ;    H22 - C14    - O15
  1111  1107  1114   1   1.1026e+02   5.2300e+02 ;    H24 - C16    - O11
  1112  1108  1116   1   1.1026e+02   5.2300e+02 ;    H25 - C17    - O12
  1113  1106  1118   1   1.0978e+02   5.2216e+02 ;    H26 - C15    - O13
  1113  1106  1119   1   1.0956e+02   3.9246e+02 ;    H26 - C15    - C18
  1118  1105  1124   1   1.0829e+02   9.2801e+02 ;    O13 - C14    - O15
  1118  1106  1119   1   1.0797e+02   7.1379e+02 ;    O13 - C15    - C18
  1119  1122  1123   1   1.0726e+02   4.1003e+02 ;    C18 - O14    - H31
  1120  1119  1121   1   1.0846e+02   3.2468e+02 ;    H29 - C18    - H30
  1120  1119  1122   1   1.1026e+02   5.2300e+02 ;    H29 - C18    - O14
  1121  1119  1122   1   1.1026e+02   5.2300e+02 ;    H30 - C18    - O14
  1124  1125  1127   1   1.0797e+02   7.1379e+02 ;    O15 - C19    - C21
  1124  1125  1128   1   1.0797e+02   7.1379e+02 ;    O15 - C19    - C22
  1124  1125  1134   1   1.0978e+02   5.2216e+02 ;    O15 - C19    - H36
  1125  1127  1126   1   1.1151e+02   5.4308e+02 ;    C19 - C21    - C20
  1125  1127  1130   1   1.0956e+02   3.9246e+02 ;    C19 - C21    - H32
  1125  1127  1143   1   1.1019e+02   7.0793e+02 ;    C19 - C21    - O19
  1125  1128  1132   1   1.0956e+02   3.9246e+02 ;    C19 - C22    - H34
  1125  1128  1135   1   1.0797e+02   7.1379e+02 ;    C19 - C22    - O16
  1125  1128  1136   1   1.1151e+02   5.4308e+02 ;    C19 - C22    - C24
  1126  1127  1130   1   1.0956e+02   3.9246e+02 ;    C20 - C21    - H32
  1126  1127  1143   1   1.1019e+02   7.0793e+02 ;    C20 - C21    - O19
  1126  1129  1133   1   1.1022e+02   3.9079e+02 ;    C20 - C23    - H35
  1126  1129  1135   1   1.0797e+02   7.1379e+02 ;    C20 - C23    - O16
  1126  1129  1145   1   1.0797e+02   7.1379e+02 ;    C20 - C23    - O20
  1126  1141  1142   1   1.0726e+02   4.1003e+02 ;    C20 - O18    - H40
  1127  1125  1128   1   1.1151e+02   5.4308e+02 ;    C21 - C19    - C22
  1127  1125  1134   1   1.0956e+02   3.9246e+02 ;    C21 - C19    - H36
  1127  1126  1129   1   1.1151e+02   5.4308e+02 ;    C21 - C20    - C23
  1127  1126  1131   1   1.0956e+02   3.9246e+02 ;    C21 - C20    - H33
  1127  1126  1141   1   1.1019e+02   7.0793e+02 ;    C21 - C20    - O18
  1127  1143  1144   1   1.0726e+02   4.1003e+02 ;    C21 - O19    - H41
  1128  1125  1134   1   1.0956e+02   3.9246e+02 ;    C22 - C19    - H36
  1128  1135  1129   1   1.1248e+02   5.5480e+02 ;    C22 - O16    - C23
  1128  1136  1137   1   1.0956e+02   3.9246e+02 ;    C22 - C24    - H37
  1128  1136  1138   1   1.0956e+02   3.9246e+02 ;    C22 - C24    - H38
  1128  1136  1139   1   1.1019e+02   7.0793e+02 ;    C22 - C24    - O17
  1129  1126  1131   1   1.0956e+02   3.9246e+02 ;    C23 - C20    - H33
  1129  1126  1141   1   1.1019e+02   7.0793e+02 ;    C23 - C20    - O18
  1129  1145  1146   1   1.1248e+02   5.5480e+02 ;    C23 - O20    - C25
  1130  1127  1143   1   1.1026e+02   5.2300e+02 ;    H32 - C21    - O19
  1131  1126  1141   1   1.1026e+02   5.2300e+02 ;    H33 - C20    - O18
  1132  1128  1135   1   1.0978e+02   5.2216e+02 ;    H34 - C22    - O16
  1132  1128  1136   1   1.0956e+02   3.9246e+02 ;    H34 - C22    - C24
  1133  1129  1135   1   1.0958e+02   5.2216e+02 ;    H35 - C23    - O16
  1133  1129  1145   1   1.0958e+02   5.2216e+02 ;    H35 - C23    - O20
  1135  1128  1136   1   1.0797e+02   7.1379e+02 ;    O16 - C22    - C24
  1135  1129  1145   1   1.0829e+02   9.2801e+02 ;    O16 - C23    - O20
  1136  1139  1140   1   1.0726e+02   4.1003e+02 ;    C24 - O17    - H39
  1137  1136  1138   1   1.0846e+02   3.2468e+02 ;    H37 - C24    - H38
  1137  1136  1139   1   1.1026e+02   5.2300e+02 ;    H37 - C24    - O17
  1138  1136  1139   1   1.1026e+02   5.2300e+02 ;    H38 - C24    - O17
  1145  1146  1148   1   1.0797e+02   7.1379e+02 ;    O20 - C25    - C27
  1145  1146  1149   1   1.0797e+02   7.1379e+02 ;    O20 - C25    - C28
  1145  1146  1152   1   1.0978e+02   5.2216e+02 ;    O20 - C25    - H43
  1146  1148  1155   1   1.0956e+02   3.9246e+02 ;    C25 - C27    - H46
  1146  1148  1160   1   1.0797e+02   7.1379e+02 ;    C25 - C27    - O23
  1146  1148  1161   1   1.1151e+02   5.4308e+02 ;    C25 - C27    - C30
  1146  1149  1150   1   1.1151e+02   5.4308e+02 ;    C25 - C28    - C29
  1146  1149  1153   1   1.0956e+02   3.9246e+02 ;    C25 - C28    - H44
  1146  1149  1156   1   1.1019e+02   7.0793e+02 ;    C25 - C28    - O21
  1147  1150  1149   1   1.1151e+02   5.4308e+02 ;    C26 - C29    - C28
  1147  1150  1154   1   1.0956e+02   3.9246e+02 ;    C26 - C29    - H45
  1147  1150  1158   1   1.1019e+02   7.0793e+02 ;    C26 - C29    - O22
  1147  1160  1148   1   1.1248e+02   5.5480e+02 ;    C26 - O23    - C27
  1147  1166  1167   1   1.1248e+02   5.5480e+02 ;    C26 - O25    - C31
  1148  1146  1149   1   1.1151e+02   5.4308e+02 ;    C27 - C25    - C28
  1148  1146  1152   1   1.0956e+02   3.9246e+02 ;    C27 - C25    - H43
  1148  1161  1162   1   1.0956e+02   3.9246e+02 ;    C27 - C30    - H49
  1148  1161  1163   1   1.0956e+02   3.9246e+02 ;    C27 - C30    - H50
  1148  1161  1164   1   1.1019e+02   7.0793e+02 ;    C27 - C30    - O24
  1149  1146  1152   1   1.0956e+02   3.9246e+02 ;    C28 - C25    - H43
  1149  1150  1154   1   1.0956e+02   3.9246e+02 ;    C28 - C29    - H45
  1149  1150  1158   1   1.1019e+02   7.0793e+02 ;    C28 - C29    - O22
  1149  1156  1157   1   1.0726e+02   4.1003e+02 ;    C28 - O21    - H47
  1150  1147  1151   1   1.1022e+02   3.9079e+02 ;    C29 - C26    - H42
  1150  1147  1160   1   1.0797e+02   7.1379e+02 ;    C29 - C26    - O23
  1150  1147  1166   1   1.0797e+02   7.1379e+02 ;    C29 - C26    - O25
  1150  1149  1153   1   1.0956e+02   3.9246e+02 ;    C29 - C28    - H44
  1150  1149  1156   1   1.1019e+02   7.0793e+02 ;    C29 - C28    - O21
  1150  1158  1159   1   1.0726e+02   4.1003e+02 ;    C29 - O22    - H48
  1151  1147  1160   1   1.0958e+02   5.2216e+02 ;    H42 - C26    - O23
  1151  1147  1166   1   1.0958e+02   5.2216e+02 ;    H42 - C26    - O25
  1153  1149  1156   1   1.1026e+02   5.2300e+02 ;    H44 - C28    - O21
  1154  1150  1158   1   1.1026e+02   5.2300e+02 ;    H45 - C29    - O22
  1155  1148  1160   1   1.0978e+02   5.2216e+02 ;    H46 - C27    - O23
  1155  1148  1161   1   1.0956e+02   3.9246e+02 ;    H46 - C27    - C30
  1160  1147  1166   1   1.0829e+02   9.2801e+02 ;    O23 - C26    - O25
  1160  1148  1161   1   1.0797e+02   7.1379e+02 ;    O23 - C27    - C30
  1161  1164  1165   1   1.0726e+02   4.1003e+02 ;    C30 - O24    - H51
  1162  1161  1163   1   1.0846e+02   3.2468e+02 ;    H49 - C30    - H50
  1162  1161  1164   1   1.1026e+02   5.2300e+02 ;    H49 - C30    - O24
  1163  1161  1164   1   1.1026e+02   5.2300e+02 ;    H50 - C30    - O24
  1166  1167  1169   1   1.0797e+02   7.1379e+02 ;    O25 - C31    - C33
  1166  1167  1170   1   1.0797e+02   7.1379e+02 ;    O25 - C31    - C34
  1166  1167  1176   1   1.0978e+02   5.2216e+02 ;    O25 - C31    - H56
  1167  1169  1168   1   1.1151e+02   5.4308e+02 ;    C31 - C33    - C32
  1167  1169  1172   1   1.0956e+02   3.9246e+02 ;    C31 - C33    - H52
  1167  1169  1185   1   1.1019e+02   7.0793e+02 ;    C31 - C33    - O29
  1167  1170  1174   1   1.0956e+02   3.9246e+02 ;    C31 - C34    - H54
  1167  1170  1177   1   1.0797e+02   7.1379e+02 ;    C31 - C34    - O26
  1167  1170  1178   1   1.1151e+02   5.4308e+02 ;    C31 - C34    - C36
  1168  1169  1172   1   1.0956e+02   3.9246e+02 ;    C32 - C33    - H52
  1168  1169  1185   1   1.1019e+02   7.0793e+02 ;    C32 - C33    - O29
  1168  1171  1175   1   1.1022e+02   3.9079e+02 ;    C32 - C35    - H55
  1168  1171  1177   1   1.0797e+02   7.1379e+02 ;    C32 - C35    - O26
  1168  1171  1187   1   1.0797e+02   7.1379e+02 ;    C32 - C35    - O30
  1168  1183  1184   1   1.0726e+02   4.1003e+02 ;    C32 - O28    - H60
  1169  1167  1170   1   1.1151e+02   5.4308e+02 ;    C33 - C31    - C34
  1169  1167  1176   1   1.0956e+02   3.9246e+02 ;    C33 - C31    - H56
  1169  1168  1171   1   1.1151e+02   5.4308e+02 ;    C33 - C32    - C35
  1169  1168  1173   1   1.0956e+02   3.9246e+02 ;    C33 - C32    - H53
  1169  1168  1183   1   1.1019e+02   7.0793e+02 ;    C33 - C32    - O28
  1169  1185  1186   1   1.0726e+02   4.1003e+02 ;    C33 - O29    - H61
  1170  1167  1176   1   1.0956e+02   3.9246e+02 ;    C34 - C31    - H56
  1170  1177  1171   1   1.1248e+02   5.5480e+02 ;    C34 - O26    - C35
  1170  1178  1179   1   1.0956e+02   3.9246e+02 ;    C34 - C36    - H57
  1170  1178  1180   1   1.0956e+02   3.9246e+02 ;    C34 - C36    - H58
  1170  1178  1181   1   1.1019e+02   7.0793e+02 ;    C34 - C36    - O27
  1171  1168  1173   1   1.0956e+02   3.9246e+02 ;    C35 - C32    - H53
  1171  1168  1183   1   1.1019e+02   7.0793e+02 ;    C35 - C32    - O28
  1171  1187  1188   1   1.1248e+02   5.5480e+02 ;    C35 - O30    - C37
  1172  1169  1185   1   1.1026e+02   5.2300e+02 ;    H52 - C33    - O29
  1173  1168  1183   1   1.1026e+02   5.2300e+02 ;    H53 - C32    - O28
  1174  1170  1177   1   1.0978e+02   5.2216e+02 ;    H54 - C34    - O26
  1174  1170  1178   1   1.0956e+02   3.9246e+02 ;    H54 - C34    - C36
  1175  1171  1177   1   1.0958e+02   5.2216e+02 ;    H55 - C35    - O26
  1175  1171  1187   1   1.0958e+02   5.2216e+02 ;    H55 - C35    - O30
  1177  1170  1178   1   1.0797e+02   7.1379e+02 ;    O26 - C34    - C36
  1177  1171  1187   1   1.0829e+02   9.2801e+02 ;    O26 - C35    - O30
  1178  1181  1182   1   1.0726e+02   4.1003e+02 ;    C36 - O27    - H59
  1179  1178  1180   1   1.0846e+02   3.2468e+02 ;    H57 - C36    - H58
  1179  1178  1181   1   1.1026e+02   5.2300e+02 ;    H57 - C36    - O27
  1180  1178  1181   1   1.1026e+02   5.2300e+02 ;    H58 - C36    - O27
  1187  1188  1190   1   1.0797e+02   7.1379e+02 ;    O30 - C37    - C39
  1187  1188  1191   1   1.0797e+02   7.1379e+02 ;    O30 - C37    - C40
  1187  1188  1194   1   1.0978e+02   5.2216e+02 ;    O30 - C37    - H63
  1188  1190  1197   1   1.0956e+02   3.9246e+02 ;    C37 - C39    - H66
  1188  1190  1202   1   1.0797e+02   7.1379e+02 ;    C37 - C39    - O33
  1188  1190  1203   1   1.1151e+02   5.4308e+02 ;    C37 - C39    - C42
  1188  1191  1192   1   1.1151e+02   5.4308e+02 ;    C37 - C40    - C41
  1188  1191  1195   1   1.0956e+02   3.9246e+02 ;    C37 - C40    - H64
  1188  1191  1198   1   1.1019e+02   7.0793e+02 ;    C37 - C40    - O31
  1189  1192  1191   1   1.1151e+02   5.4308e+02 ;    C38 - C41    - C40
  1189  1192  1196   1   1.0956e+02   3.9246e+02 ;    C38 - C41    - H65
  1189  1192  1200   1   1.1019e+02   7.0793e+02 ;    C38 - C41    - O32
  1189  1202  1190   1   1.1248e+02   5.5480e+02 ;    C38 - O33    - C39
  1189  1208  1209   1   1.1248e+02   5.5480e+02 ;    C38 - O35    - C43
  1190  1188  1191   1   1.1151e+02   5.4308e+02 ;    C39 - C37    - C40
  1190  1188  1194   1   1.0956e+02   3.9246e+02 ;    C39 - C37    - H63
  1190  1203  1204   1   1.0956e+02   3.9246e+02 ;    C39 - C42    - H69
  1190  1203  1205   1   1.0956e+02   3.9246e+02 ;    C39 - C42    - H70
  1190  1203  1206   1   1.1019e+02   7.0793e+02 ;    C39 - C42    - O34
  1191  1188  1194   1   1.0956e+02   3.9246e+02 ;    C40 - C37    - H63
  1191  1192  1196   1   1.0956e+02   3.9246e+02 ;    C40 - C41    - H65
  1191  1192  1200   1   1.1019e+02   7.0793e+02 ;    C40 - C41    - O32
  1191  1198  1199   1   1.0726e+02   4.1003e+02 ;    C40 - O31    - H67
  1192  1189  1193   1   1.1022e+02   3.9079e+02 ;    C41 - C38    - H62
  1192  1189  1202   1   1.0797e+02   7.1379e+02 ;    C41 - C38    - O33
  1192  1189  1208   1   1.0797e+02   7.1379e+02 ;    C41 - C38    - O35
  1192  1191  1195   1   1.0956e+02   3.9246e+02 ;    C41 - C40    - H64
  1192  1191  1198   1   1.1019e+02   7.0793e+02 ;    C41 - C40    - O31
  1192  1200  1201   1   1.0726e+02   4.1003e+02 ;    C41 - O32    - H68
  1193  1189  1202   1   1.0958e+02   5.2216e+02 ;    H62 - C38    - O33
  1193  1189  1208   1   1.0958e+02   5.2216e+02 ;    H62 - C38    - O35
  1195  1191  1198   1   1.1026e+02   5.2300e+02 ;    H64 - C40    - O31
  1196  1192  1200   1   1.1026e+02   5.2300e+02 ;    H65 - C41    - O32
  1197  1190  1202   1   1.0978e+02   5.2216e+02 ;    H66 - C39    - O33
  1197  1190  1203   1   1.0956e+02   3.9246e+02 ;    H66 - C39    - C42
  1202  1189  1208   1   1.0829e+02   9.2801e+02 ;    O33 - C38    - O35
  1202  1190  1203   1   1.0797e+02   7.1379e+02 ;    O33 - C39    - C42
  1203  1206  1207   1   1.0726e+02   4.1003e+02 ;    C42 - O34    - H71
  1204  1203  1205   1   1.0846e+02   3.2468e+02 ;    H69 - C42    - H70
  1204  1203  1206   1   1.1026e+02   5.2300e+02 ;    H69 - C42    - O34
  1205  1203  1206   1   1.1026e+02   5.2300e+02 ;    H70 - C42    - O34
  1208  1209  1211   1   1.0797e+02   7.1379e+02 ;    O35 - C43    - C45
  1208  1209  1212   1   1.0797e+02   7.1379e+02 ;    O35 - C43    - C46
  1208  1209  1218   1   1.0978e+02   5.2216e+02 ;    O35 - C43    - H76
  1209  1211  1210   1   1.1151e+02   5.4308e+02 ;    C43 - C45    - C44
  1209  1211  1214   1   1.0956e+02   3.9246e+02 ;    C43 - C45    - H72
  1209  1211  1227   1   1.1019e+02   7.0793e+02 ;    C43 - C45    - O39
  1209  1212  1216   1   1.0956e+02   3.9246e+02 ;    C43 - C46    - H74
  1209  1212  1219   1   1.0797e+02   7.1379e+02 ;    C43 - C46    - O36
  1209  1212  1220   1   1.1151e+02   5.4308e+02 ;    C43 - C46    - C48
  1210  1211  1214   1   1.0956e+02   3.9246e+02 ;    C44 - C45    - H72
  1210  1211  1227   1   1.1019e+02   7.0793e+02 ;    C44 - C45    - O39
  1210  1213  1217   1   1.1022e+02   3.9079e+02 ;    C44 - C47    - H75
  1210  1213  1219   1   1.0797e+02   7.1379e+02 ;    C44 - C47    - O36
  1210  1213  1229   1   1.0797e+02   7.1379e+02 ;    C44 - C47    - O40
  1210  1225  1226   1   1.0726e+02   4.1003e+02 ;    C44 - O38    - H80
  1211  1209  1212   1   1.1151e+02   5.4308e+02 ;    C45 - C43    - C46
  1211  1209  1218   1   1.0956e+02   3.9246e+02 ;    C45 - C43    - H76
  1211  1210  1213   1   1.1151e+02   5.4308e+02 ;    C45 - C44    - C47
  1211  1210  1215   1   1.0956e+02   3.9246e+02 ;    C45 - C44    - H73
  1211  1210  1225   1   1.1019e+02   7.0793e+02 ;    C45 - C44    - O38
  1211  1227  1228   1   1.0726e+02   4.1003e+02 ;    C45 - O39    - H81
  1212  1209  1218   1   1.0956e+02   3.9246e+02 ;    C46 - C43    - H76
  1212  1219  1213   1   1.1248e+02   5.5480e+02 ;    C46 - O36    - C47
  1212  1220  1221   1   1.0956e+02   3.9246e+02 ;    C46 - C48    - H77
  1212  1220  1222   1   1.0956e+02   3.9246e+02 ;    C46 - C48    - H78
  1212  1220  1223   1   1.1019e+02   7.0793e+02 ;    C46 - C48    - O37
  1213  1210  1215   1   1.0956e+02   3.9246e+02 ;    C47 - C44    - H73
  1213  1210  1225   1   1.1019e+02   7.0793e+02 ;    C47 - C44    - O38
  1213  1229  1230   1   1.1248e+02   5.5480e+02 ;    C47 - O40    - C49
  1214  1211  1227   1   1.1026e+02   5.2300e+02 ;    H72 - C45    - O39
  1215  1210  1225   1   1.1026e+02   5.2300e+02 ;    H73 - C44    - O38
  1216  1212  1219   1   1.0978e+02   5.2216e+02 ;    H74 - C46    - O36
  1216  1212  1220   1   1.0956e+02   3.9246e+02 ;    H74 - C46    - C48
  1217  1213  1219   1   1.0958e+02   5.2216e+02 ;    H75 - C47    - O36
  1217  1213  1229   1   1.0958e+02   5.2216e+02 ;    H75 - C47    - O40
  1219  1212  1220   1   1.0797e+02   7.1379e+02 ;    O36 - C46    - C48
  1219  1213  1229   1   1.0829e+02   9.2801e+02 ;    O36 - C47    - O40
  1220  1223  1224   1   1.0726e+02   4.1003e+02 ;    C48 - O37    - H79
  1221  1220  1222   1   1.0846e+02   3.2468e+02 ;    H77 - C48    - H78
  1221  1220  1223   1   1.1026e+02   5.2300e+02 ;    H77 - C48    - O37
  1222  1220  1223   1   1.1026e+02   5.2300e+02 ;    H78 - C48    - O37
  1229  1230  1232   1   1.0797e+02   7.1379e+02 ;    O40 - C49    - C51
  1229  1230  1233   1   1.0797e+02   7.1379e+02 ;    O40 - C49    - C52
  1229  1230  1236   1   1.0978e+02   5.2216e+02 ;    O40 - C49    - H83
  1230  1232  1239   1   1.0956e+02   3.9246e+02 ;    C49 - C51    - H86
  1230  1232  1244   1   1.0797e+02   7.1379e+02 ;    C49 - C51    - O43
  1230  1232  1245   1   1.1151e+02   5.4308e+02 ;    C49 - C51    - C54
  1230  1233  1234   1   1.1151e+02   5.4308e+02 ;    C49 - C52    - C53
  1230  1233  1237   1   1.0956e+02   3.9246e+02 ;    C49 - C52    - H84
  1230  1233  1240   1   1.1019e+02   7.0793e+02 ;    C49 - C52    - O41
  1231  1234  1233   1   1.1151e+02   5.4308e+02 ;    C50 - C53    - C52
  1231  1234  1238   1   1.0956e+02   3.9246e+02 ;    C50 - C53    - H85
  1231  1234  1242   1   1.1019e+02   7.0793e+02 ;    C50 - C53    - O42
  1231  1244  1232   1   1.1248e+02   5.5480e+02 ;    C50 - O43    - C51
  1231  1250  1251   1   1.1248e+02   5.5480e+02 ;    C50 - O45    - C55
  1232  1230  1233   1   1.1151e+02   5.4308e+02 ;    C51 - C49    - C52
  1232  1230  1236   1   1.0956e+02   3.9246e+02 ;    C51 - C49    - H83
  1232  1245  1246   1   1.0956e+02   3.9246e+02 ;    C51 - C54    - H89
  1232  1245  1247   1   1.0956e+02   3.9246e+02 ;    C51 - C54    - H90
  1232  1245  1248   1   1.1019e+02   7.0793e+02 ;    C51 - C54    - O44
  1233  1230  1236   1   1.0956e+02   3.9246e+02 ;    C52 - C49    - H83
  1233  1234  1238   1   1.0956e+02   3.9246e+02 ;    C52 - C53    - H85
  1233  1234  1242   1   1.1019e+02   7.0793e+02 ;    C52 - C53    - O42
  1233  1240  1241   1   1.0726e+02   4.1003e+02 ;    C52 - O41    - H87
  1234  1231  1235   1   1.1022e+02   3.9079e+02 ;    C53 - C50    - H82
  1234  1231  1244   1   1.0797e+02   7.1379e+02 ;    C53 - C50    - O43
  1234  1231  1250   1   1.0797e+02   7.1379e+02 ;    C53 - C50    - O45
  1234  1233  1237   1   1.0956e+02   3.9246e+02 ;    C53 - C52    - H84
  1234  1233  1240   1   1.1019e+02   7.0793e+02 ;    C53 - C52    - O41
  1234  1242  1243   1   1.0726e+02   4.1003e+02 ;    C53 - O42    - H88
  1235  1231  1244   1   1.0958e+02   5.2216e+02 ;    H82 - C50    - O43
  1235  1231  1250   1   1.0958e+02   5.2216e+02 ;    H82 - C50    - O45
  1237  1233  1240   1   1.1026e+02   5.2300e+02 ;    H84 - C52    - O41
  1238  1234  1242   1   1.1026e+02   5.2300e+02 ;    H85 - C53    - O42
  1239  1232  1244   1   1.0978e+02   5.2216e+02 ;    H86 - C51    - O43
  1239  1232  1245   1   1.0956e+02   3.9246e+02 ;    H86 - C51    - C54
  1244  1231  1250   1   1.0829e+02   9.2801e+02 ;    O43 - C50    - O45
  1244  1232  1245   1   1.0797e+02   7.1379e+02 ;    O43 - C51    - C54
  1245  1248  1249   1   1.0726e+02   4.1003e+02 ;    C54 - O44    - H91
  1246  1245  1247   1   1.0846e+02   3.2468e+02 ;    H89 - C54    - H90
  1246  1245  1248   1   1.1026e+02   5.2300e+02 ;    H89 - C54    - O44
  1247  1245  1248   1   1.1026e+02   5.2300e+02 ;    H90 - C54    - O44
  1250  1251  1253   1   1.0797e+02   7.1379e+02 ;    O45 - C55    - C57
  1250  1251  1254   1   1.0797e+02   7.1379e+02 ;    O45 - C55    - C58
  1250  1251  1260   1   1.0978e+02   5.2216e+02 ;    O45 - C55    - H96
  1251  1253  1252   1   1.1151e+02   5.4308e+02 ;    C55 - C57    - C56
  1251  1253  1256   1   1.0956e+02   3.9246e+02 ;    C55 - C57    - H92
  1251  1253  1269   1   1.1019e+02   7.0793e+02 ;    C55 - C57    - O49
  1251  1254  1258   1   1.0956e+02   3.9246e+02 ;    C55 - C58    - H94
  1251  1254  1261   1   1.0797e+02   7.1379e+02 ;    C55 - C58    - O46
  1251  1254  1262   1   1.1151e+02   5.4308e+02 ;    C55 - C58    - C60
  1252  1253  1256   1   1.0956e+02   3.9246e+02 ;    C56 - C57    - H92
  1252  1253  1269   1   1.1019e+02   7.0793e+02 ;    C56 - C57    - O49
  1252  1255  1259   1   1.1022e+02   3.9079e+02 ;    C56 - C59    - H95
  1252  1255  1261   1   1.0797e+02   7.1379e+02 ;    C56 - C59    - O46
  1252  1255  1271   1   1.1019e+02   7.0793e+02 ;    C56 - C59    - O50
  1252  1267  1268   1   1.0726e+02   4.1003e+02 ;    C56 - O48    - H100
  1253  1251  1254   1   1.1151e+02   5.4308e+02 ;    C57 - C55    - C58
  1253  1251  1260   1   1.0956e+02   3.9246e+02 ;    C57 - C55    - H96
  1253  1252  1255   1   1.1151e+02   5.4308e+02 ;    C57 - C56    - C59
  1253  1252  1257   1   1.0956e+02   3.9246e+02 ;    C57 - C56    - H93
  1253  1252  1267   1   1.1019e+02   7.0793e+02 ;    C57 - C56    - O48
  1253  1269  1270   1   1.0726e+02   4.1003e+02 ;    C57 - O49    - H101
  1254  1251  1260   1   1.0956e+02   3.9246e+02 ;    C58 - C55    - H96
  1254  1261  1255   1   1.1248e+02   5.5480e+02 ;    C58 - O46    - C59
  1254  1262  1263   1   1.0956e+02   3.9246e+02 ;    C58 - C60    - H97
  1254  1262  1264   1   1.0956e+02   3.9246e+02 ;    C58 - C60    - H98
  1254  1262  1265   1   1.1019e+02   7.0793e+02 ;    C58 - C60    - O47
  1255  1252  1257   1   1.0956e+02   3.9246e+02 ;    C59 - C56    - H93
  1255  1252  1267   1   1.1019e+02   7.0793e+02 ;    C59 - C56    - O48
  1255  1271  1272   1   1.0726e+02   4.1003e+02 ;    C59 - O50    - H102
  1256  1253  1269   1   1.1026e+02   5.2300e+02 ;    H92 - C57    - O49
  1257  1252  1267   1   1.1026e+02   5.2300e+02 ;    H93 - C56    - O48
  1258  1254  1261   1   1.0978e+02   5.2216e+02 ;    H94 - C58    - O46
  1258  1254  1262   1   1.0956e+02   3.9246e+02 ;    H94 - C58    - C60
  1259  1255  1261   1   1.0958e+02   5.2216e+02 ;    H95 - C59    - O46
  1259  1255  1271   1   1.0943e+02   5.2551e+02 ;    H95 - C59    - O50
  1261  1254  1262   1   1.0797e+02   7.1379e+02 ;    O46 - C58    - C60
  1261  1255  1271   1   1.0938e+02   9.2634e+02 ;    O46 - C59    - O50
  1262  1265  1266   1   1.0726e+02   4.1003e+02 ;    C60 - O47    - H99
  1263  1262  1264   1   1.0846e+02   3.2468e+02 ;    H97 - C60    - H98
  1263  1262  1265   1   1.1026e+02   5.2300e+02 ;    H97 - C60    - O47
  1264  1262  1265   1   1.1026e+02   5.2300e+02 ;    H98 - C60    - O47
  1273  1274  1276   1   1.0980e+02   3.9162e+02 ;     H1 - C1     - C3
  1273  1274  1277   1   1.0980e+02   3.9162e+02 ;     H1 - C1     - C4
  1273  1274  1280   1   1.0758e+02   3.2635e+02 ;     H1 - C1     - H3
  1274  1276  1283   1   1.0956e+02   3.9246e+02 ;     C1 - C3     - H6
  1274  1276  1288   1   1.0797e+02   7.1379e+02 ;     C1 - C3     - O3
  1274  1276  1289   1   1.1151e+02   5.4308e+02 ;     C1 - C3     - C6
  1274  1277  1278   1   1.1151e+02   5.4308e+02 ;     C1 - C4     - C5
  1274  1277  1281   1   1.0956e+02   3.9246e+02 ;     C1 - C4     - H4
  1274  1277  1284   1   1.1019e+02   7.0793e+02 ;     C1 - C4     - O1
  1275  1278  1277   1   1.1151e+02   5.4308e+02 ;     C2 - C5     - C4
  1275  1278  1282   1   1.0956e+02   3.9246e+02 ;     C2 - C5     - H5
  1275  1278  1286   1   1.1019e+02   7.0793e+02 ;     C2 - C5     - O2
  1275  1288  1276   1   1.1248e+02   5.5480e+02 ;     C2 - O3     - C3
  1275  1294  1295   1   1.1248e+02   5.5480e+02 ;     C2 - O5     - C7
  1276  1274  1277   1   1.1151e+02   5.4308e+02 ;     C3 - C1     - C4
  1276  1274  1280   1   1.0980e+02   3.9162e+02 ;     C3 - C1     - H3
  1276  1289  1290   1   1.0956e+02   3.9246e+02 ;     C3 - C6     - H9
  1276  1289  1291   1   1.0956e+02   3.9246e+02 ;     C3 - C6     - H10
  1276  1289  1292   1   1.1019e+02   7.0793e+02 ;     C3 - C6     - O4
  1277  1274  1280   1   1.0980e+02   3.9162e+02 ;     C4 - C1     - H3
  1277  1278  1282   1   1.0956e+02   3.9246e+02 ;     C4 - C5     - H5
  1277  1278  1286   1   1.1019e+02   7.0793e+02 ;     C4 - C5     - O2
  1277  1284  1285   1   1.0726e+02   4.1003e+02 ;     C4 - O1     - H7
  1278  1275  1279   1   1.1022e+02   3.9079e+02 ;     C5 - C2     - H2
  1278  1275  1288   1   1.0797e+02   7.1379e+02 ;     C5 - C2     - O3
  1278  1275  1294   1   1.0797e+02   7.1379e+02 ;     C5 - C2     - O5
  1278  1277  1281   1   1.0956e+02   3.9246e+02 ;     C5 - C4     - H4
  1278  1277  1284   1   1.1019e+02   7.0793e+02 ;     C5 - C4     - O1
  1278  1286  1287   1   1.0726e+02   4.1003e+02 ;     C5 - O2     - H8
  1279  1275  1288   1   1.0958e+02   5.2216e+02 ;     H2 - C2     - O3
  1279  1275  1294   1   1.0958e+02   5.2216e+02 ;     H2 - C2     - O5
  1281  1277  1284   1   1.1026e+02   5.2300e+02 ;     H4 - C4     - O1
  1282  1278  1286   1   1.1026e+02   5.2300e+02 ;     H5 - C5     - O2
  1283  1276  1288   1   1.0978e+02   5.2216e+02 ;     H6 - C3     - O3
  1283  1276  1289   1   1.0956e+02   3.9246e+02 ;     H6 - C3     - C6
  1288  1275  1294   1   1.0829e+02   9.2801e+02 ;     O3 - C2     - O5
  1288  1276  1289   1   1.0797e+02   7.1379e+02 ;     O3 - C3     - C6
  1289  1292  1293   1   1.0726e+02   4.1003e+02 ;     C6 - O4     - H11
  1290  1289  1291   1   1.0846e+02   3.2468e+02 ;     H9 - C6     - H10
  1290  1289  1292   1   1.1026e+02   5.2300e+02 ;     H9 - C6     - O4
  1291  1289  1292   1   1.1026e+02   5.2300e+02 ;    H10 - C6     - O4
  1294  1295  1297   1   1.0797e+02   7.1379e+02 ;     O5 - C7     - C9
  1294  1295  1298   1   1.0797e+02   7.1379e+02 ;     O5 - C7     - C10
  1294  1295  1304   1   1.0978e+02   5.2216e+02 ;     O5 - C7     - H16
  1295  1297  1296   1   1.1151e+02   5.4308e+02 ;     C7 - C9     - C8
  1295  1297  1300   1   1.0956e+02   3.9246e+02 ;     C7 - C9     - H12
  1295  1297  1313   1   1.1019e+02   7.0793e+02 ;     C7 - C9     - O9
  1295  1298  1302   1   1.0956e+02   3.9246e+02 ;     C7 - C10    - H14
  1295  1298  1305   1   1.0797e+02   7.1379e+02 ;     C7 - C10    - O6
  1295  1298  1306   1   1.1151e+02   5.4308e+02 ;     C7 - C10    - C12
  1296  1297  1300   1   1.0956e+02   3.9246e+02 ;     C8 - C9     - H12
  1296  1297  1313   1   1.1019e+02   7.0793e+02 ;     C8 - C9     - O9
  1296  1299  1303   1   1.1022e+02   3.9079e+02 ;     C8 - C11    - H15
  1296  1299  1305   1   1.0797e+02   7.1379e+02 ;     C8 - C11    - O6
  1296  1299  1315   1   1.0797e+02   7.1379e+02 ;     C8 - C11    - O10
  1296  1311  1312   1   1.0726e+02   4.1003e+02 ;     C8 - O8     - H20
  1297  1295  1298   1   1.1151e+02   5.4308e+02 ;     C9 - C7     - C10
  1297  1295  1304   1   1.0956e+02   3.9246e+02 ;     C9 - C7     - H16
  1297  1296  1299   1   1.1151e+02   5.4308e+02 ;     C9 - C8     - C11
  1297  1296  1301   1   1.0956e+02   3.9246e+02 ;     C9 - C8     - H13
  1297  1296  1311   1   1.1019e+02   7.0793e+02 ;     C9 - C8     - O8
  1297  1313  1314   1   1.0726e+02   4.1003e+02 ;     C9 - O9     - H21
  1298  1295  1304   1   1.0956e+02   3.9246e+02 ;    C10 - C7     - H16
  1298  1305  1299   1   1.1248e+02   5.5480e+02 ;    C10 - O6     - C11
  1298  1306  1307   1   1.0956e+02   3.9246e+02 ;    C10 - C12    - H17
  1298  1306  1308   1   1.0956e+02   3.9246e+02 ;    C10 - C12    - H18
  1298  1306  1309   1   1.1019e+02   7.0793e+02 ;    C10 - C12    - O7
  1299  1296  1301   1   1.0956e+02   3.9246e+02 ;    C11 - C8     - H13
  1299  1296  1311   1   1.1019e+02   7.0793e+02 ;    C11 - C8     - O8
  1299  1315  1316   1   1.1248e+02   5.5480e+02 ;    C11 - O10    - C13
  1300  1297  1313   1   1.1026e+02   5.2300e+02 ;    H12 - C9     - O9
  1301  1296  1311   1   1.1026e+02   5.2300e+02 ;    H13 - C8     - O8
  1302  1298  1305   1   1.0978e+02   5.2216e+02 ;    H14 - C10    - O6
  1302  1298  1306   1   1.0956e+02   3.9246e+02 ;    H14 - C10    - C12
  1303  1299  1305   1   1.0958e+02   5.2216e+02 ;    H15 - C11    - O6
  1303  1299  1315   1   1.0958e+02   5.2216e+02 ;    H15 - C11    - O10
  1305  1298  1306   1   1.0797e+02   7.1379e+02 ;     O6 - C10    - C12
  1305  1299  1315   1   1.0829e+02   9.2801e+02 ;     O6 - C11    - O10
  1306  1309  1310   1   1.0726e+02   4.1003e+02 ;    C12 - O7     - H19
  1307  1306  1308   1   1.0846e+02   3.2468e+02 ;    H17 - C12    - H18
  1307  1306  1309   1   1.1026e+02   5.2300e+02 ;    H17 - C12    - O7
  1308  1306  1309   1   1.1026e+02   5.2300e+02 ;    H18 - C12    - O7
  1315  1316  1318   1   1.0797e+02   7.1379e+02 ;    O10 - C13    - C15
  1315  1316  1319   1   1.0797e+02   7.1379e+02 ;    O10 - C13    - C16
  1315  1316  1322   1   1.0978e+02   5.2216e+02 ;    O10 - C13    - H23
  1316  1318  1325   1   1.0956e+02   3.9246e+02 ;    C13 - C15    - H26
  1316  1318  1330   1   1.0797e+02   7.1379e+02 ;    C13 - C15    - O13
  1316  1318  1331   1   1.1151e+02   5.4308e+02 ;    C13 - C15    - C18
  1316  1319  1320   1   1.1151e+02   5.4308e+02 ;    C13 - C16    - C17
  1316  1319  1323   1   1.0956e+02   3.9246e+02 ;    C13 - C16    - H24
  1316  1319  1326   1   1.1019e+02   7.0793e+02 ;    C13 - C16    - O11
  1317  1320  1319   1   1.1151e+02   5.4308e+02 ;    C14 - C17    - C16
  1317  1320  1324   1   1.0956e+02   3.9246e+02 ;    C14 - C17    - H25
  1317  1320  1328   1   1.1019e+02   7.0793e+02 ;    C14 - C17    - O12
  1317  1330  1318   1   1.1248e+02   5.5480e+02 ;    C14 - O13    - C15
  1317  1336  1337   1   1.1248e+02   5.5480e+02 ;    C14 - O15    - C19
  1318  1316  1319   1   1.1151e+02   5.4308e+02 ;    C15 - C13    - C16
  1318  1316  1322   1   1.0956e+02   3.9246e+02 ;    C15 - C13    - H23
  1318  1331  1332   1   1.0956e+02   3.9246e+02 ;    C15 - C18    - H29
  1318  1331  1333   1   1.0956e+02   3.9246e+02 ;    C15 - C18    - H30
  1318  1331  1334   1   1.1019e+02   7.0793e+02 ;    C15 - C18    - O14
  1319  1316  1322   1   1.0956e+02   3.9246e+02 ;    C16 - C13    - H23
  1319  1320  1324   1   1.0956e+02   3.9246e+02 ;    C16 - C17    - H25
  1319  1320  1328   1   1.1019e+02   7.0793e+02 ;    C16 - C17    - O12
  1319  1326  1327   1   1.0726e+02   4.1003e+02 ;    C16 - O11    - H27
  1320  1317  1321   1   1.1022e+02   3.9079e+02 ;    C17 - C14    - H22
  1320  1317  1330   1   1.0797e+02   7.1379e+02 ;    C17 - C14    - O13
  1320  1317  1336   1   1.0797e+02   7.1379e+02 ;    C17 - C14    - O15
  1320  1319  1323   1   1.0956e+02   3.9246e+02 ;    C17 - C16    - H24
  1320  1319  1326   1   1.1019e+02   7.0793e+02 ;    C17 - C16    - O11
  1320  1328  1329   1   1.0726e+02   4.1003e+02 ;    C17 - O12    - H28
  1321  1317  1330   1   1.0958e+02   5.2216e+02 ;    H22 - C14    - O13
  1321  1317  1336   1   1.0958e+02   5.2216e+02 ;    H22 - C14    - O15
  1323  1319  1326   1   1.1026e+02   5.2300e+02 ;    H24 - C16    - O11
  1324  1320  1328   1   1.1026e+02   5.2300e+02 ;    H25 - C17    - O12
  1325  1318  1330   1   1.0978e+02   5.2216e+02 ;    H26 - C15    - O13
  1325  1318  1331   1   1.0956e+02   3.9246e+02 ;    H26 - C15    - C18
  1330  1317  1336   1   1.0829e+02   9.2801e+02 ;    O13 - C14    - O15
  1330  1318  1331   1   1.0797e+02   7.1379e+02 ;    O13 - C15    - C18
  1331  1334  1335   1   1.0726e+02   4.1003e+02 ;    C18 - O14    - H31
  1332  1331  1333   1   1.0846e+02   3.2468e+02 ;    H29 - C18    - H30
  1332  1331  1334   1   1.1026e+02   5.2300e+02 ;    H29 - C18    - O14
  1333  1331  1334   1   1.1026e+02   5.2300e+02 ;    H30 - C18    - O14
  1336  1337  1339   1   1.0797e+02   7.1379e+02 ;    O15 - C19    - C21
  1336  1337  1340   1   1.0797e+02   7.1379e+02 ;    O15 - C19    - C22
  1336  1337  1346   1   1.0978e+02   5.2216e+02 ;    O15 - C19    - H36
  1337  1339  1338   1   1.1151e+02   5.4308e+02 ;    C19 - C21    - C20
  1337  1339  1342   1   1.0956e+02   3.9246e+02 ;    C19 - C21    - H32
  1337  1339  1355   1   1.1019e+02   7.0793e+02 ;    C19 - C21    - O19
  1337  1340  1344   1   1.0956e+02   3.9246e+02 ;    C19 - C22    - H34
  1337  1340  1347   1   1.0797e+02   7.1379e+02 ;    C19 - C22    - O16
  1337  1340  1348   1   1.1151e+02   5.4308e+02 ;    C19 - C22    - C24
  1338  1339  1342   1   1.0956e+02   3.9246e+02 ;    C20 - C21    - H32
  1338  1339  1355   1   1.1019e+02   7.0793e+02 ;    C20 - C21    - O19
  1338  1341  1345   1   1.1022e+02   3.9079e+02 ;    C20 - C23    - H35
  1338  1341  1347   1   1.0797e+02   7.1379e+02 ;    C20 - C23    - O16
  1338  1341  1357   1   1.0797e+02   7.1379e+02 ;    C20 - C23    - O20
  1338  1353  1354   1   1.0726e+02   4.1003e+02 ;    C20 - O18    - H40
  1339  1337  1340   1   1.1151e+02   5.4308e+02 ;    C21 - C19    - C22
  1339  1337  1346   1   1.0956e+02   3.9246e+02 ;    C21 - C19    - H36
  1339  1338  1341   1   1.1151e+02   5.4308e+02 ;    C21 - C20    - C23
  1339  1338  1343   1   1.0956e+02   3.9246e+02 ;    C21 - C20    - H33
  1339  1338  1353   1   1.1019e+02   7.0793e+02 ;    C21 - C20    - O18
  1339  1355  1356   1   1.0726e+02   4.1003e+02 ;    C21 - O19    - H41
  1340  1337  1346   1   1.0956e+02   3.9246e+02 ;    C22 - C19    - H36
  1340  1347  1341   1   1.1248e+02   5.5480e+02 ;    C22 - O16    - C23
  1340  1348  1349   1   1.0956e+02   3.9246e+02 ;    C22 - C24    - H37
  1340  1348  1350   1   1.0956e+02   3.9246e+02 ;    C22 - C24    - H38
  1340  1348  1351   1   1.1019e+02   7.0793e+02 ;    C22 - C24    - O17
  1341  1338  1343   1   1.0956e+02   3.9246e+02 ;    C23 - C20    - H33
  1341  1338  1353   1   1.1019e+02   7.0793e+02 ;    C23 - C20    - O18
  1341  1357  1358   1   1.1248e+02   5.5480e+02 ;    C23 - O20    - C25
  1342  1339  1355   1   1.1026e+02   5.2300e+02 ;    H32 - C21    - O19
  1343  1338  1353   1   1.1026e+02   5.2300e+02 ;    H33 - C20    - O18
  1344  1340  1347   1   1.0978e+02   5.2216e+02 ;    H34 - C22    - O16
  1344  1340  1348   1   1.0956e+02   3.9246e+02 ;    H34 - C22    - C24
  1345  1341  1347   1   1.0958e+02   5.2216e+02 ;    H35 - C23    - O16
  1345  1341  1357   1   1.0958e+02   5.2216e+02 ;    H35 - C23    - O20
  1347  1340  1348   1   1.0797e+02   7.1379e+02 ;    O16 - C22    - C24
  1347  1341  1357   1   1.0829e+02   9.2801e+02 ;    O16 - C23    - O20
  1348  1351  1352   1   1.0726e+02   4.1003e+02 ;    C24 - O17    - H39
  1349  1348  1350   1   1.0846e+02   3.2468e+02 ;    H37 - C24    - H38
  1349  1348  1351   1   1.1026e+02   5.2300e+02 ;    H37 - C24    - O17
  1350  1348  1351   1   1.1026e+02   5.2300e+02 ;    H38 - C24    - O17
  1357  1358  1360   1   1.0797e+02   7.1379e+02 ;    O20 - C25    - C27
  1357  1358  1361   1   1.0797e+02   7.1379e+02 ;    O20 - C25    - C28
  1357  1358  1364   1   1.0978e+02   5.2216e+02 ;    O20 - C25    - H43
  1358  1360  1367   1   1.0956e+02   3.9246e+02 ;    C25 - C27    - H46
  1358  1360  1372   1   1.0797e+02   7.1379e+02 ;    C25 - C27    - O23
  1358  1360  1373   1   1.1151e+02   5.4308e+02 ;    C25 - C27    - C30
  1358  1361  1362   1   1.1151e+02   5.4308e+02 ;    C25 - C28    - C29
  1358  1361  1365   1   1.0956e+02   3.9246e+02 ;    C25 - C28    - H44
  1358  1361  1368   1   1.1019e+02   7.0793e+02 ;    C25 - C28    - O21
  1359  1362  1361   1   1.1151e+02   5.4308e+02 ;    C26 - C29    - C28
  1359  1362  1366   1   1.0956e+02   3.9246e+02 ;    C26 - C29    - H45
  1359  1362  1370   1   1.1019e+02   7.0793e+02 ;    C26 - C29    - O22
  1359  1372  1360   1   1.1248e+02   5.5480e+02 ;    C26 - O23    - C27
  1359  1378  1379   1   1.1248e+02   5.5480e+02 ;    C26 - O25    - C31
  1360  1358  1361   1   1.1151e+02   5.4308e+02 ;    C27 - C25    - C28
  1360  1358  1364   1   1.0956e+02   3.9246e+02 ;    C27 - C25    - H43
  1360  1373  1374   1   1.0956e+02   3.9246e+02 ;    C27 - C30    - H49
  1360  1373  1375   1   1.0956e+02   3.9246e+02 ;    C27 - C30    - H50
  1360  1373  1376   1   1.1019e+02   7.0793e+02 ;    C27 - C30    - O24
  1361  1358  1364   1   1.0956e+02   3.9246e+02 ;    C28 - C25    - H43
  1361  1362  1366   1   1.0956e+02   3.9246e+02 ;    C28 - C29    - H45
  1361  1362  1370   1   1.1019e+02   7.0793e+02 ;    C28 - C29    - O22
  1361  1368  1369   1   1.0726e+02   4.1003e+02 ;    C28 - O21    - H47
  1362  1359  1363   1   1.1022e+02   3.9079e+02 ;    C29 - C26    - H42
  1362  1359  1372   1   1.0797e+02   7.1379e+02 ;    C29 - C26    - O23
  1362  1359  1378   1   1.0797e+02   7.1379e+02 ;    C29 - C26    - O25
  1362  1361  1365   1   1.0956e+02   3.9246e+02 ;    C29 - C28    - H44
  1362  1361  1368   1   1.1019e+02   7.0793e+02 ;    C29 - C28    - O21
  1362  1370  1371   1   1.0726e+02   4.1003e+02 ;    C29 - O22    - H48
  1363  1359  1372   1   1.0958e+02   5.2216e+02 ;    H42 - C26    - O23
  1363  1359  1378   1   1.0958e+02   5.2216e+02 ;    H42 - C26    - O25
  1365  1361  1368   1   1.1026e+02   5.2300e+02 ;    H44 - C28    - O21
  1366  1362  1370   1   1.1026e+02   5.2300e+02 ;    H45 - C29    - O22
  1367  1360  1372   1   1.0978e+02   5.2216e+02 ;    H46 - C27    - O23
  1367  1360  1373   1   1.0956e+02   3.9246e+02 ;    H46 - C27    - C30
  1372  1359  1378   1   1.0829e+02   9.2801e+02 ;    O23 - C26    - O25
  1372  1360  1373   1   1.0797e+02   7.1379e+02 ;    O23 - C27    - C30
  1373  1376  1377   1   1.0726e+02   4.1003e+02 ;    C30 - O24    - H51
  1374  1373  1375   1   1.0846e+02   3.2468e+02 ;    H49 - C30    - H50
  1374  1373  1376   1   1.1026e+02   5.2300e+02 ;    H49 - C30    - O24
  1375  1373  1376   1   1.1026e+02   5.2300e+02 ;    H50 - C30    - O24
  1378  1379  1381   1   1.0797e+02   7.1379e+02 ;    O25 - C31    - C33
  1378  1379  1382   1   1.0797e+02   7.1379e+02 ;    O25 - C31    - C34
  1378  1379  1388   1   1.0978e+02   5.2216e+02 ;    O25 - C31    - H56
  1379  1381  1380   1   1.1151e+02   5.4308e+02 ;    C31 - C33    - C32
  1379  1381  1384   1   1.0956e+02   3.9246e+02 ;    C31 - C33    - H52
  1379  1381  1397   1   1.1019e+02   7.0793e+02 ;    C31 - C33    - O29
  1379  1382  1386   1   1.0956e+02   3.9246e+02 ;    C31 - C34    - H54
  1379  1382  1389   1   1.0797e+02   7.1379e+02 ;    C31 - C34    - O26
  1379  1382  1390   1   1.1151e+02   5.4308e+02 ;    C31 - C34    - C36
  1380  1381  1384   1   1.0956e+02   3.9246e+02 ;    C32 - C33    - H52
  1380  1381  1397   1   1.1019e+02   7.0793e+02 ;    C32 - C33    - O29
  1380  1383  1387   1   1.1022e+02   3.9079e+02 ;    C32 - C35    - H55
  1380  1383  1389   1   1.0797e+02   7.1379e+02 ;    C32 - C35    - O26
  1380  1383  1399   1   1.0797e+02   7.1379e+02 ;    C32 - C35    - O30
  1380  1395  1396   1   1.0726e+02   4.1003e+02 ;    C32 - O28    - H60
  1381  1379  1382   1   1.1151e+02   5.4308e+02 ;    C33 - C31    - C34
  1381  1379  1388   1   1.0956e+02   3.9246e+02 ;    C33 - C31    - H56
  1381  1380  1383   1   1.1151e+02   5.4308e+02 ;    C33 - C32    - C35
  1381  1380  1385   1   1.0956e+02   3.9246e+02 ;    C33 - C32    - H53
  1381  1380  1395   1   1.1019e+02   7.0793e+02 ;    C33 - C32    - O28
  1381  1397  1398   1   1.0726e+02   4.1003e+02 ;    C33 - O29    - H61
  1382  1379  1388   1   1.0956e+02   3.9246e+02 ;    C34 - C31    - H56
  1382  1389  1383   1   1.1248e+02   5.5480e+02 ;    C34 - O26    - C35
  1382  1390  1391   1   1.0956e+02   3.9246e+02 ;    C34 - C36    - H57
  1382  1390  1392   1   1.0956e+02   3.9246e+02 ;    C34 - C36    - H58
  1382  1390  1393   1   1.1019e+02   7.0793e+02 ;    C34 - C36    - O27
  1383  1380  1385   1   1.0956e+02   3.9246e+02 ;    C35 - C32    - H53
  1383  1380  1395   1   1.1019e+02   7.0793e+02 ;    C35 - C32    - O28
  1383  1399  1400   1   1.1248e+02   5.5480e+02 ;    C35 - O30    - C37
  1384  1381  1397   1   1.1026e+02   5.2300e+02 ;    H52 - C33    - O29
  1385  1380  1395   1   1.1026e+02   5.2300e+02 ;    H53 - C32    - O28
  1386  1382  1389   1   1.0978e+02   5.2216e+02 ;    H54 - C34    - O26
  1386  1382  1390   1   1.0956e+02   3.9246e+02 ;    H54 - C34    - C36
  1387  1383  1389   1   1.0958e+02   5.2216e+02 ;    H55 - C35    - O26
  1387  1383  1399   1   1.0958e+02   5.2216e+02 ;    H55 - C35    - O30
  1389  1382  1390   1   1.0797e+02   7.1379e+02 ;    O26 - C34    - C36
  1389  1383  1399   1   1.0829e+02   9.2801e+02 ;    O26 - C35    - O30
  1390  1393  1394   1   1.0726e+02   4.1003e+02 ;    C36 - O27    - H59
  1391  1390  1392   1   1.0846e+02   3.2468e+02 ;    H57 - C36    - H58
  1391  1390  1393   1   1.1026e+02   5.2300e+02 ;    H57 - C36    - O27
  1392  1390  1393   1   1.1026e+02   5.2300e+02 ;    H58 - C36    - O27
  1399  1400  1402   1   1.0797e+02   7.1379e+02 ;    O30 - C37    - C39
  1399  1400  1403   1   1.0797e+02   7.1379e+02 ;    O30 - C37    - C40
  1399  1400  1406   1   1.0978e+02   5.2216e+02 ;    O30 - C37    - H63
  1400  1402  1409   1   1.0956e+02   3.9246e+02 ;    C37 - C39    - H66
  1400  1402  1414   1   1.0797e+02   7.1379e+02 ;    C37 - C39    - O33
  1400  1402  1415   1   1.1151e+02   5.4308e+02 ;    C37 - C39    - C42
  1400  1403  1404   1   1.1151e+02   5.4308e+02 ;    C37 - C40    - C41
  1400  1403  1407   1   1.0956e+02   3.9246e+02 ;    C37 - C40    - H64
  1400  1403  1410   1   1.1019e+02   7.0793e+02 ;    C37 - C40    - O31
  1401  1404  1403   1   1.1151e+02   5.4308e+02 ;    C38 - C41    - C40
  1401  1404  1408   1   1.0956e+02   3.9246e+02 ;    C38 - C41    - H65
  1401  1404  1412   1   1.1019e+02   7.0793e+02 ;    C38 - C41    - O32
  1401  1414  1402   1   1.1248e+02   5.5480e+02 ;    C38 - O33    - C39
  1401  1420  1421   1   1.1248e+02   5.5480e+02 ;    C38 - O35    - C43
  1402  1400  1403   1   1.1151e+02   5.4308e+02 ;    C39 - C37    - C40
  1402  1400  1406   1   1.0956e+02   3.9246e+02 ;    C39 - C37    - H63
  1402  1415  1416   1   1.0956e+02   3.9246e+02 ;    C39 - C42    - H69
  1402  1415  1417   1   1.0956e+02   3.9246e+02 ;    C39 - C42    - H70
  1402  1415  1418   1   1.1019e+02   7.0793e+02 ;    C39 - C42    - O34
  1403  1400  1406   1   1.0956e+02   3.9246e+02 ;    C40 - C37    - H63
  1403  1404  1408   1   1.0956e+02   3.9246e+02 ;    C40 - C41    - H65
  1403  1404  1412   1   1.1019e+02   7.0793e+02 ;    C40 - C41    - O32
  1403  1410  1411   1   1.0726e+02   4.1003e+02 ;    C40 - O31    - H67
  1404  1401  1405   1   1.1022e+02   3.9079e+02 ;    C41 - C38    - H62
  1404  1401  1414   1   1.0797e+02   7.1379e+02 ;    C41 - C38    - O33
  1404  1401  1420   1   1.0797e+02   7.1379e+02 ;    C41 - C38    - O35
  1404  1403  1407   1   1.0956e+02   3.9246e+02 ;    C41 - C40    - H64
  1404  1403  1410   1   1.1019e+02   7.0793e+02 ;    C41 - C40    - O31
  1404  1412  1413   1   1.0726e+02   4.1003e+02 ;    C41 - O32    - H68
  1405  1401  1414   1   1.0958e+02   5.2216e+02 ;    H62 - C38    - O33
  1405  1401  1420   1   1.0958e+02   5.2216e+02 ;    H62 - C38    - O35
  1407  1403  1410   1   1.1026e+02   5.2300e+02 ;    H64 - C40    - O31
  1408  1404  1412   1   1.1026e+02   5.2300e+02 ;    H65 - C41    - O32
  1409  1402  1414   1   1.0978e+02   5.2216e+02 ;    H66 - C39    - O33
  1409  1402  1415   1   1.0956e+02   3.9246e+02 ;    H66 - C39    - C42
  1414  1401  1420   1   1.0829e+02   9.2801e+02 ;    O33 - C38    - O35
  1414  1402  1415   1   1.0797e+02   7.1379e+02 ;    O33 - C39    - C42
  1415  1418  1419   1   1.0726e+02   4.1003e+02 ;    C42 - O34    - H71
  1416  1415  1417   1   1.0846e+02   3.2468e+02 ;    H69 - C42    - H70
  1416  1415  1418   1   1.1026e+02   5.2300e+02 ;    H69 - C42    - O34
  1417  1415  1418   1   1.1026e+02   5.2300e+02 ;    H70 - C42    - O34
  1420  1421  1423   1   1.0797e+02   7.1379e+02 ;    O35 - C43    - C45
  1420  1421  1424   1   1.0797e+02   7.1379e+02 ;    O35 - C43    - C46
  1420  1421  1430   1   1.0978e+02   5.2216e+02 ;    O35 - C43    - H76
  1421  1423  1422   1   1.1151e+02   5.4308e+02 ;    C43 - C45    - C44
  1421  1423  1426   1   1.0956e+02   3.9246e+02 ;    C43 - C45    - H72
  1421  1423  1439   1   1.1019e+02   7.0793e+02 ;    C43 - C45    - O39
  1421  1424  1428   1   1.0956e+02   3.9246e+02 ;    C43 - C46    - H74
  1421  1424  1431   1   1.0797e+02   7.1379e+02 ;    C43 - C46    - O36
  1421  1424  1432   1   1.1151e+02   5.4308e+02 ;    C43 - C46    - C48
  1422  1423  1426   1   1.0956e+02   3.9246e+02 ;    C44 - C45    - H72
  1422  1423  1439   1   1.1019e+02   7.0793e+02 ;    C44 - C45    - O39
  1422  1425  1429   1   1.1022e+02   3.9079e+02 ;    C44 - C47    - H75
  1422  1425  1431   1   1.0797e+02   7.1379e+02 ;    C44 - C47    - O36
  1422  1425  1441   1   1.0797e+02   7.1379e+02 ;    C44 - C47    - O40
  1422  1437  1438   1   1.0726e+02   4.1003e+02 ;    C44 - O38    - H80
  1423  1421  1424   1   1.1151e+02   5.4308e+02 ;    C45 - C43    - C46
  1423  1421  1430   1   1.0956e+02   3.9246e+02 ;    C45 - C43    - H76
  1423  1422  1425   1   1.1151e+02   5.4308e+02 ;    C45 - C44    - C47
  1423  1422  1427   1   1.0956e+02   3.9246e+02 ;    C45 - C44    - H73
  1423  1422  1437   1   1.1019e+02   7.0793e+02 ;    C45 - C44    - O38
  1423  1439  1440   1   1.0726e+02   4.1003e+02 ;    C45 - O39    - H81
  1424  1421  1430   1   1.0956e+02   3.9246e+02 ;    C46 - C43    - H76
  1424  1431  1425   1   1.1248e+02   5.5480e+02 ;    C46 - O36    - C47
  1424  1432  1433   1   1.0956e+02   3.9246e+02 ;    C46 - C48    - H77
  1424  1432  1434   1   1.0956e+02   3.9246e+02 ;    C46 - C48    - H78
  1424  1432  1435   1   1.1019e+02   7.0793e+02 ;    C46 - C48    - O37
  1425  1422  1427   1   1.0956e+02   3.9246e+02 ;    C47 - C44    - H73
  1425  1422  1437   1   1.1019e+02   7.0793e+02 ;    C47 - C44    - O38
  1425  1441  1442   1   1.1248e+02   5.5480e+02 ;    C47 - O40    - C49
  1426  1423  1439   1   1.1026e+02   5.2300e+02 ;    H72 - C45    - O39
  1427  1422  1437   1   1.1026e+02   5.2300e+02 ;    H73 - C44    - O38
  1428  1424  1431   1   1.0978e+02   5.2216e+02 ;    H74 - C46    - O36
  1428  1424  1432   1   1.0956e+02   3.9246e+02 ;    H74 - C46    - C48
  1429  1425  1431   1   1.0958e+02   5.2216e+02 ;    H75 - C47    - O36
  1429  1425  1441   1   1.0958e+02   5.2216e+02 ;    H75 - C47    - O40
  1431  1424  1432   1   1.0797e+02   7.1379e+02 ;    O36 - C46    - C48
  1431  1425  1441   1   1.0829e+02   9.2801e+02 ;    O36 - C47    - O40
  1432  1435  1436   1   1.0726e+02   4.1003e+02 ;    C48 - O37    - H79
  1433  1432  1434   1   1.0846e+02   3.2468e+02 ;    H77 - C48    - H78
  1433  1432  1435   1   1.1026e+02   5.2300e+02 ;    H77 - C48    - O37
  1434  1432  1435   1   1.1026e+02   5.2300e+02 ;    H78 - C48    - O37
  1441  1442  1444   1   1.0797e+02   7.1379e+02 ;    O40 - C49    - C51
  1441  1442  1445   1   1.0797e+02   7.1379e+02 ;    O40 - C49    - C52
  1441  1442  1448   1   1.0978e+02   5.2216e+02 ;    O40 - C49    - H83
  1442  1444  1451   1   1.0956e+02   3.9246e+02 ;    C49 - C51    - H86
  1442  1444  1456   1   1.0797e+02   7.1379e+02 ;    C49 - C51    - O43
  1442  1444  1457   1   1.1151e+02   5.4308e+02 ;    C49 - C51    - C54
  1442  1445  1446   1   1.1151e+02   5.4308e+02 ;    C49 - C52    - C53
  1442  1445  1449   1   1.0956e+02   3.9246e+02 ;    C49 - C52    - H84
  1442  1445  1452   1   1.1019e+02   7.0793e+02 ;    C49 - C52    - O41
  1443  1446  1445   1   1.1151e+02   5.4308e+02 ;    C50 - C53    - C52
  1443  1446  1450   1   1.0956e+02   3.9246e+02 ;    C50 - C53    - H85
  1443  1446  1454   1   1.1019e+02   7.0793e+02 ;    C50 - C53    - O42
  1443  1456  1444   1   1.1248e+02   5.5480e+02 ;    C50 - O43    - C51
  1443  1462  1463   1   1.1248e+02   5.5480e+02 ;    C50 - O45    - C55
  1444  1442  1445   1   1.1151e+02   5.4308e+02 ;    C51 - C49    - C52
  1444  1442  1448   1   1.0956e+02   3.9246e+02 ;    C51 - C49    - H83
  1444  1457  1458   1   1.0956e+02   3.9246e+02 ;    C51 - C54    - H89
  1444  1457  1459   1   1.0956e+02   3.9246e+02 ;    C51 - C54    - H90
  1444  1457  1460   1   1.1019e+02   7.0793e+02 ;    C51 - C54    - O44
  1445  1442  1448   1   1.0956e+02   3.9246e+02 ;    C52 - C49    - H83
  1445  1446  1450   1   1.0956e+02   3.9246e+02 ;    C52 - C53    - H85
  1445  1446  1454   1   1.1019e+02   7.0793e+02 ;    C52 - C53    - O42
  1445  1452  1453   1   1.0726e+02   4.1003e+02 ;    C52 - O41    - H87
  1446  1443  1447   1   1.1022e+02   3.9079e+02 ;    C53 - C50    - H82
  1446  1443  1456   1   1.0797e+02   7.1379e+02 ;    C53 - C50    - O43
  1446  1443  1462   1   1.0797e+02   7.1379e+02 ;    C53 - C50    - O45
  1446  1445  1449   1   1.0956e+02   3.9246e+02 ;    C53 - C52    - H84
  1446  1445  1452   1   1.1019e+02   7.0793e+02 ;    C53 - C52    - O41
  1446  1454  1455   1   1.0726e+02   4.1003e+02 ;    C53 - O42    - H88
  1447  1443  1456   1   1.0958e+02   5.2216e+02 ;    H82 - C50    - O43
  1447  1443  1462   1   1.0958e+02   5.2216e+02 ;    H82 - C50    - O45
  1449  1445  1452   1   1.1026e+02   5.2300e+02 ;    H84 - C52    - O41
  1450  1446  1454   1   1.1026e+02   5.2300e+02 ;    H85 - C53    - O42
  1451  1444  1456   1   1.0978e+02   5.2216e+02 ;    H86 - C51    - O43
  1451  1444  1457   1   1.0956e+02   3.9246e+02 ;    H86 - C51    - C54
  1456  1443  1462   1   1.0829e+02   9.2801e+02 ;    O43 - C50    - O45
  1456  1444  1457   1   1.0797e+02   7.1379e+02 ;    O43 - C51    - C54
  1457  1460  1461   1   1.0726e+02   4.1003e+02 ;    C54 - O44    - H91
  1458  1457  1459   1   1.0846e+02   3.2468e+02 ;    H89 - C54    - H90
  1458  1457  1460   1   1.1026e+02   5.2300e+02 ;    H89 - C54    - O44
  1459  1457  1460   1   1.1026e+02   5.2300e+02 ;    H90 - C54    - O44
  1462  1463  1465   1   1.0797e+02   7.1379e+02 ;    O45 - C55    - C57
  1462  1463  1466   1   1.0797e+02   7.1379e+02 ;    O45 - C55    - C58
  1462  1463  1472   1   1.0978e+02   5.2216e+02 ;    O45 - C55    - H96
  1463  1465  1464   1   1.1151e+02   5.4308e+02 ;    C55 - C57    - C56
  1463  1465  1468   1   1.0956e+02   3.9246e+02 ;    C55 - C57    - H92
  1463  1465  1481   1   1.1019e+02   7.0793e+02 ;    C55 - C57    - O49
  1463  1466  1470   1   1.0956e+02   3.9246e+02 ;    C55 - C58    - H94
  1463  1466  1473   1   1.0797e+02   7.1379e+02 ;    C55 - C58    - O46
  1463  1466  1474   1   1.1151e+02   5.4308e+02 ;    C55 - C58    - C60
  1464  1465  1468   1   1.0956e+02   3.9246e+02 ;    C56 - C57    - H92
  1464  1465  1481   1   1.1019e+02   7.0793e+02 ;    C56 - C57    - O49
  1464  1467  1471   1   1.1022e+02   3.9079e+02 ;    C56 - C59    - H95
  1464  1467  1473   1   1.0797e+02   7.1379e+02 ;    C56 - C59    - O46
  1464  1467  1483   1   1.1019e+02   7.0793e+02 ;    C56 - C59    - O50
  1464  1479  1480   1   1.0726e+02   4.1003e+02 ;    C56 - O48    - H100
  1465  1463  1466   1   1.1151e+02   5.4308e+02 ;    C57 - C55    - C58
  1465  1463  1472   1   1.0956e+02   3.9246e+02 ;    C57 - C55    - H96
  1465  1464  1467   1   1.1151e+02   5.4308e+02 ;    C57 - C56    - C59
  1465  1464  1469   1   1.0956e+02   3.9246e+02 ;    C57 - C56    - H93
  1465  1464  1479   1   1.1019e+02   7.0793e+02 ;    C57 - C56    - O48
  1465  1481  1482   1   1.0726e+02   4.1003e+02 ;    C57 - O49    - H101
  1466  1463  1472   1   1.0956e+02   3.9246e+02 ;    C58 - C55    - H96
  1466  1473  1467   1   1.1248e+02   5.5480e+02 ;    C58 - O46    - C59
  1466  1474  1475   1   1.0956e+02   3.9246e+02 ;    C58 - C60    - H97
  1466  1474  1476   1   1.0956e+02   3.9246e+02 ;    C58 - C60    - H98
  1466  1474  1477   1   1.1019e+02   7.0793e+02 ;    C58 - C60    - O47
  1467  1464  1469   1   1.0956e+02   3.9246e+02 ;    C59 - C56    - H93
  1467  1464  1479   1   1.1019e+02   7.0793e+02 ;    C59 - C56    - O48
  1467  1483  1484   1   1.0726e+02   4.1003e+02 ;    C59 - O50    - H102
  1468  1465  1481   1   1.1026e+02   5.2300e+02 ;    H92 - C57    - O49
  1469  1464  1479   1   1.1026e+02   5.2300e+02 ;    H93 - C56    - O48
  1470  1466  1473   1   1.0978e+02   5.2216e+02 ;    H94 - C58    - O46
  1470  1466  1474   1   1.0956e+02   3.9246e+02 ;    H94 - C58    - C60
  1471  1467  1473   1   1.0958e+02   5.2216e+02 ;    H95 - C59    - O46
  1471  1467  1483   1   1.0943e+02   5.2551e+02 ;    H95 - C59    - O50
  1473  1466  1474   1   1.0797e+02   7.1379e+02 ;    O46 - C58    - C60
  1473  1467  1483   1   1.0938e+02   9.2634e+02 ;    O46 - C59    - O50
  1474  1477  1478   1   1.0726e+02   4.1003e+02 ;    C60 - O47    - H99
  1475  1474  1476   1   1.0846e+02   3.2468e+02 ;    H97 - C60    - H98
  1475  1474  1477   1   1.1026e+02   5.2300e+02 ;    H97 - C60    - O47
  1476  1474  1477   1   1.1026e+02   5.2300e+02 ;    H98 - C60    - O47
  1485  1486  1488   1   1.0980e+02   3.9162e+02 ;     H1 - C1     - C3
  1485  1486  1489   1   1.0980e+02   3.9162e+02 ;     H1 - C1     - C4
  1485  1486  1492   1   1.0758e+02   3.2635e+02 ;     H1 - C1     - H3
  1486  1488  1495   1   1.0956e+02   3.9246e+02 ;     C1 - C3     - H6
  1486  1488  1500   1   1.0797e+02   7.1379e+02 ;     C1 - C3     - O3
  1486  1488  1501   1   1.1151e+02   5.4308e+02 ;     C1 - C3     - C6
  1486  1489  1490   1   1.1151e+02   5.4308e+02 ;     C1 - C4     - C5
  1486  1489  1493   1   1.0956e+02   3.9246e+02 ;     C1 - C4     - H4
  1486  1489  1496   1   1.1019e+02   7.0793e+02 ;     C1 - C4     - O1
  1487  1490  1489   1   1.1151e+02   5.4308e+02 ;     C2 - C5     - C4
  1487  1490  1494   1   1.0956e+02   3.9246e+02 ;     C2 - C5     - H5
  1487  1490  1498   1   1.1019e+02   7.0793e+02 ;     C2 - C5     - O2
  1487  1500  1488   1   1.1248e+02   5.5480e+02 ;     C2 - O3     - C3
  1487  1506  1507   1   1.1248e+02   5.5480e+02 ;     C2 - O5     - C7
  1488  1486  1489   1   1.1151e+02   5.4308e+02 ;     C3 - C1     - C4
  1488  1486  1492   1   1.0980e+02   3.9162e+02 ;     C3 - C1     - H3
  1488  1501  1502   1   1.0956e+02   3.9246e+02 ;     C3 - C6     - H9
  1488  1501  1503   1   1.0956e+02   3.9246e+02 ;     C3 - C6     - H10
  1488  1501  1504   1   1.1019e+02   7.0793e+02 ;     C3 - C6     - O4
  1489  1486  1492   1   1.0980e+02   3.9162e+02 ;     C4 - C1     - H3
  1489  1490  1494   1   1.0956e+02   3.9246e+02 ;     C4 - C5     - H5
  1489  1490  1498   1   1.1019e+02   7.0793e+02 ;     C4 - C5     - O2
  1489  1496  1497   1   1.0726e+02   4.1003e+02 ;     C4 - O1     - H7
  1490  1487  1491   1   1.1022e+02   3.9079e+02 ;     C5 - C2     - H2
  1490  1487  1500   1   1.0797e+02   7.1379e+02 ;     C5 - C2     - O3
  1490  1487  1506   1   1.0797e+02   7.1379e+02 ;     C5 - C2     - O5
  1490  1489  1493   1   1.0956e+02   3.9246e+02 ;     C5 - C4     - H4
  1490  1489  1496   1   1.1019e+02   7.0793e+02 ;     C5 - C4     - O1
  1490  1498  1499   1   1.0726e+02   4.1003e+02 ;     C5 - O2     - H8
  1491  1487  1500   1   1.0958e+02   5.2216e+02 ;     H2 - C2     - O3
  1491  1487  1506   1   1.0958e+02   5.2216e+02 ;     H2 - C2     - O5
  1493  1489  1496   1   1.1026e+02   5.2300e+02 ;     H4 - C4     - O1
  1494  1490  1498   1   1.1026e+02   5.2300e+02 ;     H5 - C5     - O2
  1495  1488  1500   1   1.0978e+02   5.2216e+02 ;     H6 - C3     - O3
  1495  1488  1501   1   1.0956e+02   3.9246e+02 ;     H6 - C3     - C6
  1500  1487  1506   1   1.0829e+02   9.2801e+02 ;     O3 - C2     - O5
  1500  1488  1501   1   1.0797e+02   7.1379e+02 ;     O3 - C3     - C6
  1501  1504  1505   1   1.0726e+02   4.1003e+02 ;     C6 - O4     - H11
  1502  1501  1503   1   1.0846e+02   3.2468e+02 ;     H9 - C6     - H10
  1502  1501  1504   1   1.1026e+02   5.2300e+02 ;     H9 - C6     - O4
  1503  1501  1504   1   1.1026e+02   5.2300e+02 ;    H10 - C6     - O4
  1506  1507  1509   1   1.0797e+02   7.1379e+02 ;     O5 - C7     - C9
  1506  1507  1510   1   1.0797e+02   7.1379e+02 ;     O5 - C7     - C10
  1506  1507  1516   1   1.0978e+02   5.2216e+02 ;     O5 - C7     - H16
  1507  1509  1508   1   1.1151e+02   5.4308e+02 ;     C7 - C9     - C8
  1507  1509  1512   1   1.0956e+02   3.9246e+02 ;     C7 - C9     - H12
  1507  1509  1525   1   1.1019e+02   7.0793e+02 ;     C7 - C9     - O9
  1507  1510  1514   1   1.0956e+02   3.9246e+02 ;     C7 - C10    - H14
  1507  1510  1517   1   1.0797e+02   7.1379e+02 ;     C7 - C10    - O6
  1507  1510  1518   1   1.1151e+02   5.4308e+02 ;     C7 - C10    - C12
  1508  1509  1512   1   1.0956e+02   3.9246e+02 ;     C8 - C9     - H12
  1508  1509  1525   1   1.1019e+02   7.0793e+02 ;     C8 - C9     - O9
  1508  1511  1515   1   1.1022e+02   3.9079e+02 ;     C8 - C11    - H15
  1508  1511  1517   1   1.0797e+02   7.1379e+02 ;     C8 - C11    - O6
  1508  1511  1527   1   1.0797e+02   7.1379e+02 ;     C8 - C11    - O10
  1508  1523  1524   1   1.0726e+02   4.1003e+02 ;     C8 - O8     - H20
  1509  1507  1510   1   1.1151e+02   5.4308e+02 ;     C9 - C7     - C10
  1509  1507  1516   1   1.0956e+02   3.9246e+02 ;     C9 - C7     - H16
  1509  1508  1511   1   1.1151e+02   5.4308e+02 ;     C9 - C8     - C11
  1509  1508  1513   1   1.0956e+02   3.9246e+02 ;     C9 - C8     - H13
  1509  1508  1523   1   1.1019e+02   7.0793e+02 ;     C9 - C8     - O8
  1509  1525  1526   1   1.0726e+02   4.1003e+02 ;     C9 - O9     - H21
  1510  1507  1516   1   1.0956e+02   3.9246e+02 ;    C10 - C7     - H16
  1510  1517  1511   1   1.1248e+02   5.5480e+02 ;    C10 - O6     - C11
  1510  1518  1519   1   1.0956e+02   3.9246e+02 ;    C10 - C12    - H17
  1510  1518  1520   1   1.0956e+02   3.9246e+02 ;    C10 - C12    - H18
  1510  1518  1521   1   1.1019e+02   7.0793e+02 ;    C10 - C12    - O7
  1511  1508  1513   1   1.0956e+02   3.9246e+02 ;    C11 - C8     - H13
  1511  1508  1523   1   1.1019e+02   7.0793e+02 ;    C11 - C8     - O8
  1511  1527  1528   1   1.1248e+02   5.5480e+02 ;    C11 - O10    - C13
  1512  1509  1525   1   1.1026e+02   5.2300e+02 ;    H12 - C9     - O9
  1513  1508  1523   1   1.1026e+02   5.2300e+02 ;    H13 - C8     - O8
  1514  1510  1517   1   1.0978e+02   5.2216e+02 ;    H14 - C10    - O6
  1514  1510  1518   1   1.0956e+02   3.9246e+02 ;    H14 - C10    - C12
  1515  1511  1517   1   1.0958e+02   5.2216e+02 ;    H15 - C11    - O6
  1515  1511  1527   1   1.0958e+02   5.2216e+02 ;    H15 - C11    - O10
  1517  1510  1518   1   1.0797e+02   7.1379e+02 ;     O6 - C10    - C12
  1517  1511  1527   1   1.0829e+02   9.2801e+02 ;     O6 - C11    - O10
  1518  1521  1522   1   1.0726e+02   4.1003e+02 ;    C12 - O7     - H19
  1519  1518  1520   1   1.0846e+02   3.2468e+02 ;    H17 - C12    - H18
  1519  1518  1521   1   1.1026e+02   5.2300e+02 ;    H17 - C12    - O7
  1520  1518  1521   1   1.1026e+02   5.2300e+02 ;    H18 - C12    - O7
  1527  1528  1530   1   1.0797e+02   7.1379e+02 ;    O10 - C13    - C15
  1527  1528  1531   1   1.0797e+02   7.1379e+02 ;    O10 - C13    - C16
  1527  1528  1534   1   1.0978e+02   5.2216e+02 ;    O10 - C13    - H23
  1528  1530  1537   1   1.0956e+02   3.9246e+02 ;    C13 - C15    - H26
  1528  1530  1542   1   1.0797e+02   7.1379e+02 ;    C13 - C15    - O13
  1528  1530  1543   1   1.1151e+02   5.4308e+02 ;    C13 - C15    - C18
  1528  1531  1532   1   1.1151e+02   5.4308e+02 ;    C13 - C16    - C17
  1528  1531  1535   1   1.0956e+02   3.9246e+02 ;    C13 - C16    - H24
  1528  1531  1538   1   1.1019e+02   7.0793e+02 ;    C13 - C16    - O11
  1529  1532  1531   1   1.1151e+02   5.4308e+02 ;    C14 - C17    - C16
  1529  1532  1536   1   1.0956e+02   3.9246e+02 ;    C14 - C17    - H25
  1529  1532  1540   1   1.1019e+02   7.0793e+02 ;    C14 - C17    - O12
  1529  1542  1530   1   1.1248e+02   5.5480e+02 ;    C14 - O13    - C15
  1529  1548  1549   1   1.1248e+02   5.5480e+02 ;    C14 - O15    - C19
  1530  1528  1531   1   1.1151e+02   5.4308e+02 ;    C15 - C13    - C16
  1530  1528  1534   1   1.0956e+02   3.9246e+02 ;    C15 - C13    - H23
  1530  1543  1544   1   1.0956e+02   3.9246e+02 ;    C15 - C18    - H29
  1530  1543  1545   1   1.0956e+02   3.9246e+02 ;    C15 - C18    - H30
  1530  1543  1546   1   1.1019e+02   7.0793e+02 ;    C15 - C18    - O14
  1531  1528  1534   1   1.0956e+02   3.9246e+02 ;    C16 - C13    - H23
  1531  1532  1536   1   1.0956e+02   3.9246e+02 ;    C16 - C17    - H25
  1531  1532  1540   1   1.1019e+02   7.0793e+02 ;    C16 - C17    - O12
  1531  1538  1539   1   1.0726e+02   4.1003e+02 ;    C16 - O11    - H27
  1532  1529  1533   1   1.1022e+02   3.9079e+02 ;    C17 - C14    - H22
  1532  1529  1542   1   1.0797e+02   7.1379e+02 ;    C17 - C14    - O13
  1532  1529  1548   1   1.0797e+02   7.1379e+02 ;    C17 - C14    - O15
  1532  1531  1535   1   1.0956e+02   3.9246e+02 ;    C17 - C16    - H24
  1532  1531  1538   1   1.1019e+02   7.0793e+02 ;    C17 - C16    - O11
  1532  1540  1541   1   1.0726e+02   4.1003e+02 ;    C17 - O12    - H28
  1533  1529  1542   1   1.0958e+02   5.2216e+02 ;    H22 - C14    - O13
  1533  1529  1548   1   1.0958e+02   5.2216e+02 ;    H22 - C14    - O15
  1535  1531  1538   1   1.1026e+02   5.2300e+02 ;    H24 - C16    - O11
  1536  1532  1540   1   1.1026e+02   5.2300e+02 ;    H25 - C17    - O12
  1537  1530  1542   1   1.0978e+02   5.2216e+02 ;    H26 - C15    - O13
  1537  1530  1543   1   1.0956e+02   3.9246e+02 ;    H26 - C15    - C18
  1542  1529  1548   1   1.0829e+02   9.2801e+02 ;    O13 - C14    - O15
  1542  1530  1543   1   1.0797e+02   7.1379e+02 ;    O13 - C15    - C18
  1543  1546  1547   1   1.0726e+02   4.1003e+02 ;    C18 - O14    - H31
  1544  1543  1545   1   1.0846e+02   3.2468e+02 ;    H29 - C18    - H30
  1544  1543  1546   1   1.1026e+02   5.2300e+02 ;    H29 - C18    - O14
  1545  1543  1546   1   1.1026e+02   5.2300e+02 ;    H30 - C18    - O14
  1548  1549  1551   1   1.0797e+02   7.1379e+02 ;    O15 - C19    - C21
  1548  1549  1552   1   1.0797e+02   7.1379e+02 ;    O15 - C19    - C22
  1548  1549  1558   1   1.0978e+02   5.2216e+02 ;    O15 - C19    - H36
  1549  1551  1550   1   1.1151e+02   5.4308e+02 ;    C19 - C21    - C20
  1549  1551  1554   1   1.0956e+02   3.9246e+02 ;    C19 - C21    - H32
  1549  1551  1567   1   1.1019e+02   7.0793e+02 ;    C19 - C21    - O19
  1549  1552  1556   1   1.0956e+02   3.9246e+02 ;    C19 - C22    - H34
  1549  1552  1559   1   1.0797e+02   7.1379e+02 ;    C19 - C22    - O16
  1549  1552  1560   1   1.1151e+02   5.4308e+02 ;    C19 - C22    - C24
  1550  1551  1554   1   1.0956e+02   3.9246e+02 ;    C20 - C21    - H32
  1550  1551  1567   1   1.1019e+02   7.0793e+02 ;    C20 - C21    - O19
  1550  1553  1557   1   1.1022e+02   3.9079e+02 ;    C20 - C23    - H35
  1550  1553  1559   1   1.0797e+02   7.1379e+02 ;    C20 - C23    - O16
  1550  1553  1569   1   1.0797e+02   7.1379e+02 ;    C20 - C23    - O20
  1550  1565  1566   1   1.0726e+02   4.1003e+02 ;    C20 - O18    - H40
  1551  1549  1552   1   1.1151e+02   5.4308e+02 ;    C21 - C19    - C22
  1551  1549  1558   1   1.0956e+02   3.9246e+02 ;    C21 - C19    - H36
  1551  1550  1553   1   1.1151e+02   5.4308e+02 ;    C21 - C20    - C23
  1551  1550  1555   1   1.0956e+02   3.9246e+02 ;    C21 - C20    - H33
  1551  1550  1565   1   1.1019e+02   7.0793e+02 ;    C21 - C20    - O18
  1551  1567  1568   1   1.0726e+02   4.1003e+02 ;    C21 - O19    - H41
  1552  1549  1558   1   1.0956e+02   3.9246e+02 ;    C22 - C19    - H36
  1552  1559  1553   1   1.1248e+02   5.5480e+02 ;    C22 - O16    - C23
  1552  1560  1561   1   1.0956e+02   3.9246e+02 ;    C22 - C24    - H37
  1552  1560  1562   1   1.0956e+02   3.9246e+02 ;    C22 - C24    - H38
  1552  1560  1563   1   1.1019e+02   7.0793e+02 ;    C22 - C24    - O17
  1553  1550  1555   1   1.0956e+02   3.9246e+02 ;    C23 - C20    - H33
  1553  1550  1565   1   1.1019e+02   7.0793e+02 ;    C23 - C20    - O18
  1553  1569  1570   1   1.1248e+02   5.5480e+02 ;    C23 - O20    - C25
  1554  1551  1567   1   1.1026e+02   5.2300e+02 ;    H32 - C21    - O19
  1555  1550  1565   1   1.1026e+02   5.2300e+02 ;    H33 - C20    - O18
  1556  1552  1559   1   1.0978e+02   5.2216e+02 ;    H34 - C22    - O16
  1556  1552  1560   1   1.0956e+02   3.9246e+02 ;    H34 - C22    - C24
  1557  1553  1559   1   1.0958e+02   5.2216e+02 ;    H35 - C23    - O16
  1557  1553  1569   1   1.0958e+02   5.2216e+02 ;    H35 - C23    - O20
  1559  1552  1560   1   1.0797e+02   7.1379e+02 ;    O16 - C22    - C24
  1559  1553  1569   1   1.0829e+02   9.2801e+02 ;    O16 - C23    - O20
  1560  1563  1564   1   1.0726e+02   4.1003e+02 ;    C24 - O17    - H39
  1561  1560  1562   1   1.0846e+02   3.2468e+02 ;    H37 - C24    - H38
  1561  1560  1563   1   1.1026e+02   5.2300e+02 ;    H37 - C24    - O17
  1562  1560  1563   1   1.1026e+02   5.2300e+02 ;    H38 - C24    - O17
  1569  1570  1572   1   1.0797e+02   7.1379e+02 ;    O20 - C25    - C27
  1569  1570  1573   1   1.0797e+02   7.1379e+02 ;    O20 - C25    - C28
  1569  1570  1576   1   1.0978e+02   5.2216e+02 ;    O20 - C25    - H43
  1570  1572  1579   1   1.0956e+02   3.9246e+02 ;    C25 - C27    - H46
  1570  1572  1584   1   1.0797e+02   7.1379e+02 ;    C25 - C27    - O23
  1570  1572  1585   1   1.1151e+02   5.4308e+02 ;    C25 - C27    - C30
  1570  1573  1574   1   1.1151e+02   5.4308e+02 ;    C25 - C28    - C29
  1570  1573  1577   1   1.0956e+02   3.9246e+02 ;    C25 - C28    - H44
  1570  1573  1580   1   1.1019e+02   7.0793e+02 ;    C25 - C28    - O21
  1571  1574  1573   1   1.1151e+02   5.4308e+02 ;    C26 - C29    - C28
  1571  1574  1578   1   1.0956e+02   3.9246e+02 ;    C26 - C29    - H45
  1571  1574  1582   1   1.1019e+02   7.0793e+02 ;    C26 - C29    - O22
  1571  1584  1572   1   1.1248e+02   5.5480e+02 ;    C26 - O23    - C27
  1571  1590  1591   1   1.1248e+02   5.5480e+02 ;    C26 - O25    - C31
  1572  1570  1573   1   1.1151e+02   5.4308e+02 ;    C27 - C25    - C28
  1572  1570  1576   1   1.0956e+02   3.9246e+02 ;    C27 - C25    - H43
  1572  1585  1586   1   1.0956e+02   3.9246e+02 ;    C27 - C30    - H49
  1572  1585  1587   1   1.0956e+02   3.9246e+02 ;    C27 - C30    - H50
  1572  1585  1588   1   1.1019e+02   7.0793e+02 ;    C27 - C30    - O24
  1573  1570  1576   1   1.0956e+02   3.9246e+02 ;    C28 - C25    - H43
  1573  1574  1578   1   1.0956e+02   3.9246e+02 ;    C28 - C29    - H45
  1573  1574  1582   1   1.1019e+02   7.0793e+02 ;    C28 - C29    - O22
  1573  1580  1581   1   1.0726e+02   4.1003e+02 ;    C28 - O21    - H47
  1574  1571  1575   1   1.1022e+02   3.9079e+02 ;    C29 - C26    - H42
  1574  1571  1584   1   1.0797e+02   7.1379e+02 ;    C29 - C26    - O23
  1574  1571  1590   1   1.0797e+02   7.1379e+02 ;    C29 - C26    - O25
  1574  1573  1577   1   1.0956e+02   3.9246e+02 ;    C29 - C28    - H44
  1574  1573  1580   1   1.1019e+02   7.0793e+02 ;    C29 - C28    - O21
  1574  1582  1583   1   1.0726e+02   4.1003e+02 ;    C29 - O22    - H48
  1575  1571  1584   1   1.0958e+02   5.2216e+02 ;    H42 - C26    - O23
  1575  1571  1590   1   1.0958e+02   5.2216e+02 ;    H42 - C26    - O25
  1577  1573  1580   1   1.1026e+02   5.2300e+02 ;    H44 - C28    - O21
  1578  1574  1582   1   1.1026e+02   5.2300e+02 ;    H45 - C29    - O22
  1579  1572  1584   1   1.0978e+02   5.2216e+02 ;    H46 - C27    - O23
  1579  1572  1585   1   1.0956e+02   3.9246e+02 ;    H46 - C27    - C30
  1584  1571  1590   1   1.0829e+02   9.2801e+02 ;    O23 - C26    - O25
  1584  1572  1585   1   1.0797e+02   7.1379e+02 ;    O23 - C27    - C30
  1585  1588  1589   1   1.0726e+02   4.1003e+02 ;    C30 - O24    - H51
  1586  1585  1587   1   1.0846e+02   3.2468e+02 ;    H49 - C30    - H50
  1586  1585  1588   1   1.1026e+02   5.2300e+02 ;    H49 - C30    - O24
  1587  1585  1588   1   1.1026e+02   5.2300e+02 ;    H50 - C30    - O24
  1590  1591  1593   1   1.0797e+02   7.1379e+02 ;    O25 - C31    - C33
  1590  1591  1594   1   1.0797e+02   7.1379e+02 ;    O25 - C31    - C34
  1590  1591  1600   1   1.0978e+02   5.2216e+02 ;    O25 - C31    - H56
  1591  1593  1592   1   1.1151e+02   5.4308e+02 ;    C31 - C33    - C32
  1591  1593  1596   1   1.0956e+02   3.9246e+02 ;    C31 - C33    - H52
  1591  1593  1609   1   1.1019e+02   7.0793e+02 ;    C31 - C33    - O29
  1591  1594  1598   1   1.0956e+02   3.9246e+02 ;    C31 - C34    - H54
  1591  1594  1601   1   1.0797e+02   7.1379e+02 ;    C31 - C34    - O26
  1591  1594  1602   1   1.1151e+02   5.4308e+02 ;    C31 - C34    - C36
  1592  1593  1596   1   1.0956e+02   3.9246e+02 ;    C32 - C33    - H52
  1592  1593  1609   1   1.1019e+02   7.0793e+02 ;    C32 - C33    - O29
  1592  1595  1599   1   1.1022e+02   3.9079e+02 ;    C32 - C35    - H55
  1592  1595  1601   1   1.0797e+02   7.1379e+02 ;    C32 - C35    - O26
  1592  1595  1611   1   1.0797e+02   7.1379e+02 ;    C32 - C35    - O30
  1592  1607  1608   1   1.0726e+02   4.1003e+02 ;    C32 - O28    - H60
  1593  1591  1594   1   1.1151e+02   5.4308e+02 ;    C33 - C31    - C34
  1593  1591  1600   1   1.0956e+02   3.9246e+02 ;    C33 - C31    - H56
  1593  1592  1595   1   1.1151e+02   5.4308e+02 ;    C33 - C32    - C35
  1593  1592  1597   1   1.0956e+02   3.9246e+02 ;    C33 - C32    - H53
  1593  1592  1607   1   1.1019e+02   7.0793e+02 ;    C33 - C32    - O28
  1593  1609  1610   1   1.0726e+02   4.1003e+02 ;    C33 - O29    - H61
  1594  1591  1600   1   1.0956e+02   3.9246e+02 ;    C34 - C31    - H56
  1594  1601  1595   1   1.1248e+02   5.5480e+02 ;    C34 - O26    - C35
  1594  1602  1603   1   1.0956e+02   3.9246e+02 ;    C34 - C36    - H57
  1594  1602  1604   1   1.0956e+02   3.9246e+02 ;    C34 - C36    - H58
  1594  1602  1605   1   1.1019e+02   7.0793e+02 ;    C34 - C36    - O27
  1595  1592  1597   1   1.0956e+02   3.9246e+02 ;    C35 - C32    - H53
  1595  1592  1607   1   1.1019e+02   7.0793e+02 ;    C35 - C32    - O28
  1595  1611  1612   1   1.1248e+02   5.5480e+02 ;    C35 - O30    - C37
  1596  1593  1609   1   1.1026e+02   5.2300e+02 ;    H52 - C33    - O29
  1597  1592  1607   1   1.1026e+02   5.2300e+02 ;    H53 - C32    - O28
  1598  1594  1601   1   1.0978e+02   5.2216e+02 ;    H54 - C34    - O26
  1598  1594  1602   1   1.0956e+02   3.9246e+02 ;    H54 - C34    - C36
  1599  1595  1601   1   1.0958e+02   5.2216e+02 ;    H55 - C35    - O26
  1599  1595  1611   1   1.0958e+02   5.2216e+02 ;    H55 - C35    - O30
  1601  1594  1602   1   1.0797e+02   7.1379e+02 ;    O26 - C34    - C36
  1601  1595  1611   1   1.0829e+02   9.2801e+02 ;    O26 - C35    - O30
  1602  1605  1606   1   1.0726e+02   4.1003e+02 ;    C36 - O27    - H59
  1603  1602  1604   1   1.0846e+02   3.2468e+02 ;    H57 - C36    - H58
  1603  1602  1605   1   1.1026e+02   5.2300e+02 ;    H57 - C36    - O27
  1604  1602  1605   1   1.1026e+02   5.2300e+02 ;    H58 - C36    - O27
  1611  1612  1614   1   1.0797e+02   7.1379e+02 ;    O30 - C37    - C39
  1611  1612  1615   1   1.0797e+02   7.1379e+02 ;    O30 - C37    - C40
  1611  1612  1618   1   1.0978e+02   5.2216e+02 ;    O30 - C37    - H63
  1612  1614  1621   1   1.0956e+02   3.9246e+02 ;    C37 - C39    - H66
  1612  1614  1626   1   1.0797e+02   7.1379e+02 ;    C37 - C39    - O33
  1612  1614  1627   1   1.1151e+02   5.4308e+02 ;    C37 - C39    - C42
  1612  1615  1616   1   1.1151e+02   5.4308e+02 ;    C37 - C40    - C41
  1612  1615  1619   1   1.0956e+02   3.9246e+02 ;    C37 - C40    - H64
  1612  1615  1622   1   1.1019e+02   7.0793e+02 ;    C37 - C40    - O31
  1613  1616  1615   1   1.1151e+02   5.4308e+02 ;    C38 - C41    - C40
  1613  1616  1620   1   1.0956e+02   3.9246e+02 ;    C38 - C41    - H65
  1613  1616  1624   1   1.1019e+02   7.0793e+02 ;    C38 - C41    - O32
  1613  1626  1614   1   1.1248e+02   5.5480e+02 ;    C38 - O33    - C39
  1613  1632  1633   1   1.1248e+02   5.5480e+02 ;    C38 - O35    - C43
  1614  1612  1615   1   1.1151e+02   5.4308e+02 ;    C39 - C37    - C40
  1614  1612  1618   1   1.0956e+02   3.9246e+02 ;    C39 - C37    - H63
  1614  1627  1628   1   1.0956e+02   3.9246e+02 ;    C39 - C42    - H69
  1614  1627  1629   1   1.0956e+02   3.9246e+02 ;    C39 - C42    - H70
  1614  1627  1630   1   1.1019e+02   7.0793e+02 ;    C39 - C42    - O34
  1615  1612  1618   1   1.0956e+02   3.9246e+02 ;    C40 - C37    - H63
  1615  1616  1620   1   1.0956e+02   3.9246e+02 ;    C40 - C41    - H65
  1615  1616  1624   1   1.1019e+02   7.0793e+02 ;    C40 - C41    - O32
  1615  1622  1623   1   1.0726e+02   4.1003e+02 ;    C40 - O31    - H67
  1616  1613  1617   1   1.1022e+02   3.9079e+02 ;    C41 - C38    - H62
  1616  1613  1626   1   1.0797e+02   7.1379e+02 ;    C41 - C38    - O33
  1616  1613  1632   1   1.0797e+02   7.1379e+02 ;    C41 - C38    - O35
  1616  1615  1619   1   1.0956e+02   3.9246e+02 ;    C41 - C40    - H64
  1616  1615  1622   1   1.1019e+02   7.0793e+02 ;    C41 - C40    - O31
  1616  1624  1625   1   1.0726e+02   4.1003e+02 ;    C41 - O32    - H68
  1617  1613  1626   1   1.0958e+02   5.2216e+02 ;    H62 - C38    - O33
  1617  1613  1632   1   1.0958e+02   5.2216e+02 ;    H62 - C38    - O35
  1619  1615  1622   1   1.1026e+02   5.2300e+02 ;    H64 - C40    - O31
  1620  1616  1624   1   1.1026e+02   5.2300e+02 ;    H65 - C41    - O32
  1621  1614  1626   1   1.0978e+02   5.2216e+02 ;    H66 - C39    - O33
  1621  1614  1627   1   1.0956e+02   3.9246e+02 ;    H66 - C39    - C42
  1626  1613  1632   1   1.0829e+02   9.2801e+02 ;    O33 - C38    - O35
  1626  1614  1627   1   1.0797e+02   7.1379e+02 ;    O33 - C39    - C42
  1627  1630  1631   1   1.0726e+02   4.1003e+02 ;    C42 - O34    - H71
  1628  1627  1629   1   1.0846e+02   3.2468e+02 ;    H69 - C42    - H70
  1628  1627  1630   1   1.1026e+02   5.2300e+02 ;    H69 - C42    - O34
  1629  1627  1630   1   1.1026e+02   5.2300e+02 ;    H70 - C42    - O34
  1632  1633  1635   1   1.0797e+02   7.1379e+02 ;    O35 - C43    - C45
  1632  1633  1636   1   1.0797e+02   7.1379e+02 ;    O35 - C43    - C46
  1632  1633  1642   1   1.0978e+02   5.2216e+02 ;    O35 - C43    - H76
  1633  1635  1634   1   1.1151e+02   5.4308e+02 ;    C43 - C45    - C44
  1633  1635  1638   1   1.0956e+02   3.9246e+02 ;    C43 - C45    - H72
  1633  1635  1651   1   1.1019e+02   7.0793e+02 ;    C43 - C45    - O39
  1633  1636  1640   1   1.0956e+02   3.9246e+02 ;    C43 - C46    - H74
  1633  1636  1643   1   1.0797e+02   7.1379e+02 ;    C43 - C46    - O36
  1633  1636  1644   1   1.1151e+02   5.4308e+02 ;    C43 - C46    - C48
  1634  1635  1638   1   1.0956e+02   3.9246e+02 ;    C44 - C45    - H72
  1634  1635  1651   1   1.1019e+02   7.0793e+02 ;    C44 - C45    - O39
  1634  1637  1641   1   1.1022e+02   3.9079e+02 ;    C44 - C47    - H75
  1634  1637  1643   1   1.0797e+02   7.1379e+02 ;    C44 - C47    - O36
  1634  1637  1653   1   1.0797e+02   7.1379e+02 ;    C44 - C47    - O40
  1634  1649  1650   1   1.0726e+02   4.1003e+02 ;    C44 - O38    - H80
  1635  1633  1636   1   1.1151e+02   5.4308e+02 ;    C45 - C43    - C46
  1635  1633  1642   1   1.0956e+02   3.9246e+02 ;    C45 - C43    - H76
  1635  1634  1637   1   1.1151e+02   5.4308e+02 ;    C45 - C44    - C47
  1635  1634  1639   1   1.0956e+02   3.9246e+02 ;    C45 - C44    - H73
  1635  1634  1649   1   1.1019e+02   7.0793e+02 ;    C45 - C44    - O38
  1635  1651  1652   1   1.0726e+02   4.1003e+02 ;    C45 - O39    - H81
  1636  1633  1642   1   1.0956e+02   3.9246e+02 ;    C46 - C43    - H76
  1636  1643  1637   1   1.1248e+02   5.5480e+02 ;    C46 - O36    - C47
  1636  1644  1645   1   1.0956e+02   3.9246e+02 ;    C46 - C48    - H77
  1636  1644  1646   1   1.0956e+02   3.9246e+02 ;    C46 - C48    - H78
  1636  1644  1647   1   1.1019e+02   7.0793e+02 ;    C46 - C48    - O37
  1637  1634  1639   1   1.0956e+02   3.9246e+02 ;    C47 - C44    - H73
  1637  1634  1649   1   1.1019e+02   7.0793e+02 ;    C47 - C44    - O38
  1637  1653  1654   1   1.1248e+02   5.5480e+02 ;    C47 - O40    - C49
  1638  1635  1651   1   1.1026e+02   5.2300e+02 ;    H72 - C45    - O39
  1639  1634  1649   1   1.1026e+02   5.2300e+02 ;    H73 - C44    - O38
  1640  1636  1643   1   1.0978e+02   5.2216e+02 ;    H74 - C46    - O36
  1640  1636  1644   1   1.0956e+02   3.9246e+02 ;    H74 - C46    - C48
  1641  1637  1643   1   1.0958e+02   5.2216e+02 ;    H75 - C47    - O36
  1641  1637  1653   1   1.0958e+02   5.2216e+02 ;    H75 - C47    - O40
  1643  1636  1644   1   1.0797e+02   7.1379e+02 ;    O36 - C46    - C48
  1643  1637  1653   1   1.0829e+02   9.2801e+02 ;    O36 - C47    - O40
  1644  1647  1648   1   1.0726e+02   4.1003e+02 ;    C48 - O37    - H79
  1645  1644  1646   1   1.0846e+02   3.2468e+02 ;    H77 - C48    - H78
  1645  1644  1647   1   1.1026e+02   5.2300e+02 ;    H77 - C48    - O37
  1646  1644  1647   1   1.1026e+02   5.2300e+02 ;    H78 - C48    - O37
  1653  1654  1656   1   1.0797e+02   7.1379e+02 ;    O40 - C49    - C51
  1653  1654  1657   1   1.0797e+02   7.1379e+02 ;    O40 - C49    - C52
  1653  1654  1660   1   1.0978e+02   5.2216e+02 ;    O40 - C49    - H83
  1654  1656  1663   1   1.0956e+02   3.9246e+02 ;    C49 - C51    - H86
  1654  1656  1668   1   1.0797e+02   7.1379e+02 ;    C49 - C51    - O43
  1654  1656  1669   1   1.1151e+02   5.4308e+02 ;    C49 - C51    - C54
  1654  1657  1658   1   1.1151e+02   5.4308e+02 ;    C49 - C52    - C53
  1654  1657  1661   1   1.0956e+02   3.9246e+02 ;    C49 - C52    - H84
  1654  1657  1664   1   1.1019e+02   7.0793e+02 ;    C49 - C52    - O41
  1655  1658  1657   1   1.1151e+02   5.4308e+02 ;    C50 - C53    - C52
  1655  1658  1662   1   1.0956e+02   3.9246e+02 ;    C50 - C53    - H85
  1655  1658  1666   1   1.1019e+02   7.0793e+02 ;    C50 - C53    - O42
  1655  1668  1656   1   1.1248e+02   5.5480e+02 ;    C50 - O43    - C51
  1655  1674  1675   1   1.1248e+02   5.5480e+02 ;    C50 - O45    - C55
  1656  1654  1657   1   1.1151e+02   5.4308e+02 ;    C51 - C49    - C52
  1656  1654  1660   1   1.0956e+02   3.9246e+02 ;    C51 - C49    - H83
  1656  1669  1670   1   1.0956e+02   3.9246e+02 ;    C51 - C54    - H89
  1656  1669  1671   1   1.0956e+02   3.9246e+02 ;    C51 - C54    - H90
  1656  1669  1672   1   1.1019e+02   7.0793e+02 ;    C51 - C54    - O44
  1657  1654  1660   1   1.0956e+02   3.9246e+02 ;    C52 - C49    - H83
  1657  1658  1662   1   1.0956e+02   3.9246e+02 ;    C52 - C53    - H85
  1657  1658  1666   1   1.1019e+02   7.0793e+02 ;    C52 - C53    - O42
  1657  1664  1665   1   1.0726e+02   4.1003e+02 ;    C52 - O41    - H87
  1658  1655  1659   1   1.1022e+02   3.9079e+02 ;    C53 - C50    - H82
  1658  1655  1668   1   1.0797e+02   7.1379e+02 ;    C53 - C50    - O43
  1658  1655  1674   1   1.0797e+02   7.1379e+02 ;    C53 - C50    - O45
  1658  1657  1661   1   1.0956e+02   3.9246e+02 ;    C53 - C52    - H84
  1658  1657  1664   1   1.1019e+02   7.0793e+02 ;    C53 - C52    - O41
  1658  1666  1667   1   1.0726e+02   4.1003e+02 ;    C53 - O42    - H88
  1659  1655  1668   1   1.0958e+02   5.2216e+02 ;    H82 - C50    - O43
  1659  1655  1674   1   1.0958e+02   5.2216e+02 ;    H82 - C50    - O45
  1661  1657  1664   1   1.1026e+02   5.2300e+02 ;    H84 - C52    - O41
  1662  1658  1666   1   1.1026e+02   5.2300e+02 ;    H85 - C53    - O42
  1663  1656  1668   1   1.0978e+02   5.2216e+02 ;    H86 - C51    - O43
  1663  1656  1669   1   1.0956e+02   3.9246e+02 ;    H86 - C51    - C54
  1668  1655  1674   1   1.0829e+02   9.2801e+02 ;    O43 - C50    - O45
  1668  1656  1669   1   1.0797e+02   7.1379e+02 ;    O43 - C51    - C54
  1669  1672  1673   1   1.0726e+02   4.1003e+02 ;    C54 - O44    - H91
  1670  1669  1671   1   1.0846e+02   3.2468e+02 ;    H89 - C54    - H90
  1670  1669  1672   1   1.1026e+02   5.2300e+02 ;    H89 - C54    - O44
  1671  1669  1672   1   1.1026e+02   5.2300e+02 ;    H90 - C54    - O44
  1674  1675  1677   1   1.0797e+02   7.1379e+02 ;    O45 - C55    - C57
  1674  1675  1678   1   1.0797e+02   7.1379e+02 ;    O45 - C55    - C58
  1674  1675  1684   1   1.0978e+02   5.2216e+02 ;    O45 - C55    - H96
  1675  1677  1676   1   1.1151e+02   5.4308e+02 ;    C55 - C57    - C56
  1675  1677  1680   1   1.0956e+02   3.9246e+02 ;    C55 - C57    - H92
  1675  1677  1693   1   1.1019e+02   7.0793e+02 ;    C55 - C57    - O49
  1675  1678  1682   1   1.0956e+02   3.9246e+02 ;    C55 - C58    - H94
  1675  1678  1685   1   1.0797e+02   7.1379e+02 ;    C55 - C58    - O46
  1675  1678  1686   1   1.1151e+02   5.4308e+02 ;    C55 - C58    - C60
  1676  1677  1680   1   1.0956e+02   3.9246e+02 ;    C56 - C57    - H92
  1676  1677  1693   1   1.1019e+02   7.0793e+02 ;    C56 - C57    - O49
  1676  1679  1683   1   1.1022e+02   3.9079e+02 ;    C56 - C59    - H95
  1676  1679  1685   1   1.0797e+02   7.1379e+02 ;    C56 - C59    - O46
  1676  1679  1695   1   1.1019e+02   7.0793e+02 ;    C56 - C59    - O50
  1676  1691  1692   1   1.0726e+02   4.1003e+02 ;    C56 - O48    - H100
  1677  1675  1678   1   1.1151e+02   5.4308e+02 ;    C57 - C55    - C58
  1677  1675  1684   1   1.0956e+02   3.9246e+02 ;    C57 - C55    - H96
  1677  1676  1679   1   1.1151e+02   5.4308e+02 ;    C57 - C56    - C59
  1677  1676  1681   1   1.0956e+02   3.9246e+02 ;    C57 - C56    - H93
  1677  1676  1691   1   1.1019e+02   7.0793e+02 ;    C57 - C56    - O48
  1677  1693  1694   1   1.0726e+02   4.1003e+02 ;    C57 - O49    - H101
  1678  1675  1684   1   1.0956e+02   3.9246e+02 ;    C58 - C55    - H96
  1678  1685  1679   1   1.1248e+02   5.5480e+02 ;    C58 - O46    - C59
  1678  1686  1687   1   1.0956e+02   3.9246e+02 ;    C58 - C60    - H97
  1678  1686  1688   1   1.0956e+02   3.9246e+02 ;    C58 - C60    - H98
  1678  1686  1689   1   1.1019e+02   7.0793e+02 ;    C58 - C60    - O47
  1679  1676  1681   1   1.0956e+02   3.9246e+02 ;    C59 - C56    - H93
  1679  1676  1691   1   1.1019e+02   7.0793e+02 ;    C59 - C56    - O48
  1679  1695  1696   1   1.0726e+02   4.1003e+02 ;    C59 - O50    - H102
  1680  1677  1693   1   1.1026e+02   5.2300e+02 ;    H92 - C57    - O49
  1681  1676  1691   1   1.1026e+02   5.2300e+02 ;    H93 - C56    - O48
  1682  1678  1685   1   1.0978e+02   5.2216e+02 ;    H94 - C58    - O46
  1682  1678  1686   1   1.0956e+02   3.9246e+02 ;    H94 - C58    - C60
  1683  1679  1685   1   1.0958e+02   5.2216e+02 ;    H95 - C59    - O46
  1683  1679  1695   1   1.0943e+02   5.2551e+02 ;    H95 - C59    - O50
  1685  1678  1686   1   1.0797e+02   7.1379e+02 ;    O46 - C58    - C60
  1685  1679  1695   1   1.0938e+02   9.2634e+02 ;    O46 - C59    - O50
  1686  1689  1690   1   1.0726e+02   4.1003e+02 ;    C60 - O47    - H99
  1687  1686  1688   1   1.0846e+02   3.2468e+02 ;    H97 - C60    - H98
  1687  1686  1689   1   1.1026e+02   5.2300e+02 ;    H97 - C60    - O47
  1688  1686  1689   1   1.1026e+02   5.2300e+02 ;    H98 - C60    - O47
  1697  1698  1700   1   1.0980e+02   3.9162e+02 ;     H1 - C1     - C3
  1697  1698  1701   1   1.0980e+02   3.9162e+02 ;     H1 - C1     - C4
  1697  1698  1704   1   1.0758e+02   3.2635e+02 ;     H1 - C1     - H3
  1698  1700  1707   1   1.0956e+02   3.9246e+02 ;     C1 - C3     - H6
  1698  1700  1712   1   1.0797e+02   7.1379e+02 ;     C1 - C3     - O3
  1698  1700  1713   1   1.1151e+02   5.4308e+02 ;     C1 - C3     - C6
  1698  1701  1702   1   1.1151e+02   5.4308e+02 ;     C1 - C4     - C5
  1698  1701  1705   1   1.0956e+02   3.9246e+02 ;     C1 - C4     - H4
  1698  1701  1708   1   1.1019e+02   7.0793e+02 ;     C1 - C4     - O1
  1699  1702  1701   1   1.1151e+02   5.4308e+02 ;     C2 - C5     - C4
  1699  1702  1706   1   1.0956e+02   3.9246e+02 ;     C2 - C5     - H5
  1699  1702  1710   1   1.1019e+02   7.0793e+02 ;     C2 - C5     - O2
  1699  1712  1700   1   1.1248e+02   5.5480e+02 ;     C2 - O3     - C3
  1699  1718  1719   1   1.1248e+02   5.5480e+02 ;     C2 - O5     - C7
  1700  1698  1701   1   1.1151e+02   5.4308e+02 ;     C3 - C1     - C4
  1700  1698  1704   1   1.0980e+02   3.9162e+02 ;     C3 - C1     - H3
  1700  1713  1714   1   1.0956e+02   3.9246e+02 ;     C3 - C6     - H9
  1700  1713  1715   1   1.0956e+02   3.9246e+02 ;     C3 - C6     - H10
  1700  1713  1716   1   1.1019e+02   7.0793e+02 ;     C3 - C6     - O4
  1701  1698  1704   1   1.0980e+02   3.9162e+02 ;     C4 - C1     - H3
  1701  1702  1706   1   1.0956e+02   3.9246e+02 ;     C4 - C5     - H5
  1701  1702  1710   1   1.1019e+02   7.0793e+02 ;     C4 - C5     - O2
  1701  1708  1709   1   1.0726e+02   4.1003e+02 ;     C4 - O1     - H7
  1702  1699  1703   1   1.1022e+02   3.9079e+02 ;     C5 - C2     - H2
  1702  1699  1712   1   1.0797e+02   7.1379e+02 ;     C5 - C2     - O3
  1702  1699  1718   1   1.0797e+02   7.1379e+02 ;     C5 - C2     - O5
  1702  1701  1705   1   1.0956e+02   3.9246e+02 ;     C5 - C4     - H4
  1702  1701  1708   1   1.1019e+02   7.0793e+02 ;     C5 - C4     - O1
  1702  1710  1711   1   1.0726e+02   4.1003e+02 ;     C5 - O2     - H8
  1703  1699  1712   1   1.0958e+02   5.2216e+02 ;     H2 - C2     - O3
  1703  1699  1718   1   1.0958e+02   5.2216e+02 ;     H2 - C2     - O5
  1705  1701  1708   1   1.1026e+02   5.2300e+02 ;     H4 - C4     - O1
  1706  1702  1710   1   1.1026e+02   5.2300e+02 ;     H5 - C5     - O2
  1707  1700  1712   1   1.0978e+02   5.2216e+02 ;     H6 - C3     - O3
  1707  1700  1713   1   1.0956e+02   3.9246e+02 ;     H6 - C3     - C6
  1712  1699  1718   1   1.0829e+02   9.2801e+02 ;     O3 - C2     - O5
  1712  1700  1713   1   1.0797e+02   7.1379e+02 ;     O3 - C3     - C6
  1713  1716  1717   1   1.0726e+02   4.1003e+02 ;     C6 - O4     - H11
  1714  1713  1715   1   1.0846e+02   3.2468e+02 ;     H9 - C6     - H10
  1714  1713  1716   1   1.1026e+02   5.2300e+02 ;     H9 - C6     - O4
  1715  1713  1716   1   1.1026e+02   5.2300e+02 ;    H10 - C6     - O4
  1718  1719  1721   1   1.0797e+02   7.1379e+02 ;     O5 - C7     - C9
  1718  1719  1722   1   1.0797e+02   7.1379e+02 ;     O5 - C7     - C10
  1718  1719  1728   1   1.0978e+02   5.2216e+02 ;     O5 - C7     - H16
  1719  1721  1720   1   1.1151e+02   5.4308e+02 ;     C7 - C9     - C8
  1719  1721  1724   1   1.0956e+02   3.9246e+02 ;     C7 - C9     - H12
  1719  1721  1737   1   1.1019e+02   7.0793e+02 ;     C7 - C9     - O9
  1719  1722  1726   1   1.0956e+02   3.9246e+02 ;     C7 - C10    - H14
  1719  1722  1729   1   1.0797e+02   7.1379e+02 ;     C7 - C10    - O6
  1719  1722  1730   1   1.1151e+02   5.4308e+02 ;     C7 - C10    - C12
  1720  1721  1724   1   1.0956e+02   3.9246e+02 ;     C8 - C9     - H12
  1720  1721  1737   1   1.1019e+02   7.0793e+02 ;     C8 - C9     - O9
  1720  1723  1727   1   1.1022e+02   3.9079e+02 ;     C8 - C11    - H15
  1720  1723  1729   1   1.0797e+02   7.1379e+02 ;     C8 - C11    - O6
  1720  1723  1739   1   1.0797e+02   7.1379e+02 ;     C8 - C11    - O10
  1720  1735  1736   1   1.0726e+02   4.1003e+02 ;     C8 - O8     - H20
  1721  1719  1722   1   1.1151e+02   5.4308e+02 ;     C9 - C7     - C10
  1721  1719  1728   1   1.0956e+02   3.9246e+02 ;     C9 - C7     - H16
  1721  1720  1723   1   1.1151e+02   5.4308e+02 ;     C9 - C8     - C11
  1721  1720  1725   1   1.0956e+02   3.9246e+02 ;     C9 - C8     - H13
  1721  1720  1735   1   1.1019e+02   7.0793e+02 ;     C9 - C8     - O8
  1721  1737  1738   1   1.0726e+02   4.1003e+02 ;     C9 - O9     - H21
  1722  1719  1728   1   1.0956e+02   3.9246e+02 ;    C10 - C7     - H16
  1722  1729  1723   1   1.1248e+02   5.5480e+02 ;    C10 - O6     - C11
  1722  1730  1731   1   1.0956e+02   3.9246e+02 ;    C10 - C12    - H17
  1722  1730  1732   1   1.0956e+02   3.9246e+02 ;    C10 - C12    - H18
  1722  1730  1733   1   1.1019e+02   7.0793e+02 ;    C10 - C12    - O7
  1723  1720  1725   1   1.0956e+02   3.9246e+02 ;    C11 - C8     - H13
  1723  1720  1735   1   1.1019e+02   7.0793e+02 ;    C11 - C8     - O8
  1723  1739  1740   1   1.1248e+02   5.5480e+02 ;    C11 - O10    - C13
  1724  1721  1737   1   1.1026e+02   5.2300e+02 ;    H12 - C9     - O9
  1725  1720  1735   1   1.1026e+02   5.2300e+02 ;    H13 - C8     - O8
  1726  1722  1729   1   1.0978e+02   5.2216e+02 ;    H14 - C10    - O6
  1726  1722  1730   1   1.0956e+02   3.9246e+02 ;    H14 - C10    - C12
  1727  1723  1729   1   1.0958e+02   5.2216e+02 ;    H15 - C11    - O6
  1727  1723  1739   1   1.0958e+02   5.2216e+02 ;    H15 - C11    - O10
  1729  1722  1730   1   1.0797e+02   7.1379e+02 ;     O6 - C10    - C12
  1729  1723  1739   1   1.0829e+02   9.2801e+02 ;     O6 - C11    - O10
  1730  1733  1734   1   1.0726e+02   4.1003e+02 ;    C12 - O7     - H19
  1731  1730  1732   1   1.0846e+02   3.2468e+02 ;    H17 - C12    - H18
  1731  1730  1733   1   1.1026e+02   5.2300e+02 ;    H17 - C12    - O7
  1732  1730  1733   1   1.1026e+02   5.2300e+02 ;    H18 - C12    - O7
  1739  1740  1742   1   1.0797e+02   7.1379e+02 ;    O10 - C13    - C15
  1739  1740  1743   1   1.0797e+02   7.1379e+02 ;    O10 - C13    - C16
  1739  1740  1746   1   1.0978e+02   5.2216e+02 ;    O10 - C13    - H23
  1740  1742  1749   1   1.0956e+02   3.9246e+02 ;    C13 - C15    - H26
  1740  1742  1754   1   1.0797e+02   7.1379e+02 ;    C13 - C15    - O13
  1740  1742  1755   1   1.1151e+02   5.4308e+02 ;    C13 - C15    - C18
  1740  1743  1744   1   1.1151e+02   5.4308e+02 ;    C13 - C16    - C17
  1740  1743  1747   1   1.0956e+02   3.9246e+02 ;    C13 - C16    - H24
  1740  1743  1750   1   1.1019e+02   7.0793e+02 ;    C13 - C16    - O11
  1741  1744  1743   1   1.1151e+02   5.4308e+02 ;    C14 - C17    - C16
  1741  1744  1748   1   1.0956e+02   3.9246e+02 ;    C14 - C17    - H25
  1741  1744  1752   1   1.1019e+02   7.0793e+02 ;    C14 - C17    - O12
  1741  1754  1742   1   1.1248e+02   5.5480e+02 ;    C14 - O13    - C15
  1741  1760  1761   1   1.1248e+02   5.5480e+02 ;    C14 - O15    - C19
  1742  1740  1743   1   1.1151e+02   5.4308e+02 ;    C15 - C13    - C16
  1742  1740  1746   1   1.0956e+02   3.9246e+02 ;    C15 - C13    - H23
  1742  1755  1756   1   1.0956e+02   3.9246e+02 ;    C15 - C18    - H29
  1742  1755  1757   1   1.0956e+02   3.9246e+02 ;    C15 - C18    - H30
  1742  1755  1758   1   1.1019e+02   7.0793e+02 ;    C15 - C18    - O14
  1743  1740  1746   1   1.0956e+02   3.9246e+02 ;    C16 - C13    - H23
  1743  1744  1748   1   1.0956e+02   3.9246e+02 ;    C16 - C17    - H25
  1743  1744  1752   1   1.1019e+02   7.0793e+02 ;    C16 - C17    - O12
  1743  1750  1751   1   1.0726e+02   4.1003e+02 ;    C16 - O11    - H27
  1744  1741  1745   1   1.1022e+02   3.9079e+02 ;    C17 - C14    - H22
  1744  1741  1754   1   1.0797e+02   7.1379e+02 ;    C17 - C14    - O13
  1744  1741  1760   1   1.0797e+02   7.1379e+02 ;    C17 - C14    - O15
  1744  1743  1747   1   1.0956e+02   3.9246e+02 ;    C17 - C16    - H24
  1744  1743  1750   1   1.1019e+02   7.0793e+02 ;    C17 - C16    - O11
  1744  1752  1753   1   1.0726e+02   4.1003e+02 ;    C17 - O12    - H28
  1745  1741  1754   1   1.0958e+02   5.2216e+02 ;    H22 - C14    - O13
  1745  1741  1760   1   1.0958e+02   5.2216e+02 ;    H22 - C14    - O15
  1747  1743  1750   1   1.1026e+02   5.2300e+02 ;    H24 - C16    - O11
  1748  1744  1752   1   1.1026e+02   5.2300e+02 ;    H25 - C17    - O12
  1749  1742  1754   1   1.0978e+02   5.2216e+02 ;    H26 - C15    - O13
  1749  1742  1755   1   1.0956e+02   3.9246e+02 ;    H26 - C15    - C18
  1754  1741  1760   1   1.0829e+02   9.2801e+02 ;    O13 - C14    - O15
  1754  1742  1755   1   1.0797e+02   7.1379e+02 ;    O13 - C15    - C18
  1755  1758  1759   1   1.0726e+02   4.1003e+02 ;    C18 - O14    - H31
  1756  1755  1757   1   1.0846e+02   3.2468e+02 ;    H29 - C18    - H30
  1756  1755  1758   1   1.1026e+02   5.2300e+02 ;    H29 - C18    - O14
  1757  1755  1758   1   1.1026e+02   5.2300e+02 ;    H30 - C18    - O14
  1760  1761  1763   1   1.0797e+02   7.1379e+02 ;    O15 - C19    - C21
  1760  1761  1764   1   1.0797e+02   7.1379e+02 ;    O15 - C19    - C22
  1760  1761  1770   1   1.0978e+02   5.2216e+02 ;    O15 - C19    - H36
  1761  1763  1762   1   1.1151e+02   5.4308e+02 ;    C19 - C21    - C20
  1761  1763  1766   1   1.0956e+02   3.9246e+02 ;    C19 - C21    - H32
  1761  1763  1779   1   1.1019e+02   7.0793e+02 ;    C19 - C21    - O19
  1761  1764  1768   1   1.0956e+02   3.9246e+02 ;    C19 - C22    - H34
  1761  1764  1771   1   1.0797e+02   7.1379e+02 ;    C19 - C22    - O16
  1761  1764  1772   1   1.1151e+02   5.4308e+02 ;    C19 - C22    - C24
  1762  1763  1766   1   1.0956e+02   3.9246e+02 ;    C20 - C21    - H32
  1762  1763  1779   1   1.1019e+02   7.0793e+02 ;    C20 - C21    - O19
  1762  1765  1769   1   1.1022e+02   3.9079e+02 ;    C20 - C23    - H35
  1762  1765  1771   1   1.0797e+02   7.1379e+02 ;    C20 - C23    - O16
  1762  1765  1781   1   1.0797e+02   7.1379e+02 ;    C20 - C23    - O20
  1762  1777  1778   1   1.0726e+02   4.1003e+02 ;    C20 - O18    - H40
  1763  1761  1764   1   1.1151e+02   5.4308e+02 ;    C21 - C19    - C22
  1763  1761  1770   1   1.0956e+02   3.9246e+02 ;    C21 - C19    - H36
  1763  1762  1765   1   1.1151e+02   5.4308e+02 ;    C21 - C20    - C23
  1763  1762  1767   1   1.0956e+02   3.9246e+02 ;    C21 - C20    - H33
  1763  1762  1777   1   1.1019e+02   7.0793e+02 ;    C21 - C20    - O18
  1763  1779  1780   1   1.0726e+02   4.1003e+02 ;    C21 - O19    - H41
  1764  1761  1770   1   1.0956e+02   3.9246e+02 ;    C22 - C19    - H36
  1764  1771  1765   1   1.1248e+02   5.5480e+02 ;    C22 - O16    - C23
  1764  1772  1773   1   1.0956e+02   3.9246e+02 ;    C22 - C24    - H37
  1764  1772  1774   1   1.0956e+02   3.9246e+02 ;    C22 - C24    - H38
  1764  1772  1775   1   1.1019e+02   7.0793e+02 ;    C22 - C24    - O17
  1765  1762  1767   1   1.0956e+02   3.9246e+02 ;    C23 - C20    - H33
  1765  1762  1777   1   1.1019e+02   7.0793e+02 ;    C23 - C20    - O18
  1765  1781  1782   1   1.1248e+02   5.5480e+02 ;    C23 - O20    - C25
  1766  1763  1779   1   1.1026e+02   5.2300e+02 ;    H32 - C21    - O19
  1767  1762  1777   1   1.1026e+02   5.2300e+02 ;    H33 - C20    - O18
  1768  1764  1771   1   1.0978e+02   5.2216e+02 ;    H34 - C22    - O16
  1768  1764  1772   1   1.0956e+02   3.9246e+02 ;    H34 - C22    - C24
  1769  1765  1771   1   1.0958e+02   5.2216e+02 ;    H35 - C23    - O16
  1769  1765  1781   1   1.0958e+02   5.2216e+02 ;    H35 - C23    - O20
  1771  1764  1772   1   1.0797e+02   7.1379e+02 ;    O16 - C22    - C24
  1771  1765  1781   1   1.0829e+02   9.2801e+02 ;    O16 - C23    - O20
  1772  1775  1776   1   1.0726e+02   4.1003e+02 ;    C24 - O17    - H39
  1773  1772  1774   1   1.0846e+02   3.2468e+02 ;    H37 - C24    - H38
  1773  1772  1775   1   1.1026e+02   5.2300e+02 ;    H37 - C24    - O17
  1774  1772  1775   1   1.1026e+02   5.2300e+02 ;    H38 - C24    - O17
  1781  1782  1784   1   1.0797e+02   7.1379e+02 ;    O20 - C25    - C27
  1781  1782  1785   1   1.0797e+02   7.1379e+02 ;    O20 - C25    - C28
  1781  1782  1788   1   1.0978e+02   5.2216e+02 ;    O20 - C25    - H43
  1782  1784  1791   1   1.0956e+02   3.9246e+02 ;    C25 - C27    - H46
  1782  1784  1796   1   1.0797e+02   7.1379e+02 ;    C25 - C27    - O23
  1782  1784  1797   1   1.1151e+02   5.4308e+02 ;    C25 - C27    - C30
  1782  1785  1786   1   1.1151e+02   5.4308e+02 ;    C25 - C28    - C29
  1782  1785  1789   1   1.0956e+02   3.9246e+02 ;    C25 - C28    - H44
  1782  1785  1792   1   1.1019e+02   7.0793e+02 ;    C25 - C28    - O21
  1783  1786  1785   1   1.1151e+02   5.4308e+02 ;    C26 - C29    - C28
  1783  1786  1790   1   1.0956e+02   3.9246e+02 ;    C26 - C29    - H45
  1783  1786  1794   1   1.1019e+02   7.0793e+02 ;    C26 - C29    - O22
  1783  1796  1784   1   1.1248e+02   5.5480e+02 ;    C26 - O23    - C27
  1783  1802  1803   1   1.1248e+02   5.5480e+02 ;    C26 - O25    - C31
  1784  1782  1785   1   1.1151e+02   5.4308e+02 ;    C27 - C25    - C28
  1784  1782  1788   1   1.0956e+02   3.9246e+02 ;    C27 - C25    - H43
  1784  1797  1798   1   1.0956e+02   3.9246e+02 ;    C27 - C30    - H49
  1784  1797  1799   1   1.0956e+02   3.9246e+02 ;    C27 - C30    - H50
  1784  1797  1800   1   1.1019e+02   7.0793e+02 ;    C27 - C30    - O24
  1785  1782  1788   1   1.0956e+02   3.9246e+02 ;    C28 - C25    - H43
  1785  1786  1790   1   1.0956e+02   3.9246e+02 ;    C28 - C29    - H45
  1785  1786  1794   1   1.1019e+02   7.0793e+02 ;    C28 - C29    - O22
  1785  1792  1793   1   1.0726e+02   4.1003e+02 ;    C28 - O21    - H47
  1786  1783  1787   1   1.1022e+02   3.9079e+02 ;    C29 - C26    - H42
  1786  1783  1796   1   1.0797e+02   7.1379e+02 ;    C29 - C26    - O23
  1786  1783  1802   1   1.0797e+02   7.1379e+02 ;    C29 - C26    - O25
  1786  1785  1789   1   1.0956e+02   3.9246e+02 ;    C29 - C28    - H44
  1786  1785  1792   1   1.1019e+02   7.0793e+02 ;    C29 - C28    - O21
  1786  1794  1795   1   1.0726e+02   4.1003e+02 ;    C29 - O22    - H48
  1787  1783  1796   1   1.0958e+02   5.2216e+02 ;    H42 - C26    - O23
  1787  1783  1802   1   1.0958e+02   5.2216e+02 ;    H42 - C26    - O25
  1789  1785  1792   1   1.1026e+02   5.2300e+02 ;    H44 - C28    - O21
  1790  1786  1794   1   1.1026e+02   5.2300e+02 ;    H45 - C29    - O22
  1791  1784  1796   1   1.0978e+02   5.2216e+02 ;    H46 - C27    - O23
  1791  1784  1797   1   1.0956e+02   3.9246e+02 ;    H46 - C27    - C30
  1796  1783  1802   1   1.0829e+02   9.2801e+02 ;    O23 - C26    - O25
  1796  1784  1797   1   1.0797e+02   7.1379e+02 ;    O23 - C27    - C30
  1797  1800  1801   1   1.0726e+02   4.1003e+02 ;    C30 - O24    - H51
  1798  1797  1799   1   1.0846e+02   3.2468e+02 ;    H49 - C30    - H50
  1798  1797  1800   1   1.1026e+02   5.2300e+02 ;    H49 - C30    - O24
  1799  1797  1800   1   1.1026e+02   5.2300e+02 ;    H50 - C30    - O24
  1802  1803  1805   1   1.0797e+02   7.1379e+02 ;    O25 - C31    - C33
  1802  1803  1806   1   1.0797e+02   7.1379e+02 ;    O25 - C31    - C34
  1802  1803  1812   1   1.0978e+02   5.2216e+02 ;    O25 - C31    - H56
  1803  1805  1804   1   1.1151e+02   5.4308e+02 ;    C31 - C33    - C32
  1803  1805  1808   1   1.0956e+02   3.9246e+02 ;    C31 - C33    - H52
  1803  1805  1821   1   1.1019e+02   7.0793e+02 ;    C31 - C33    - O29
  1803  1806  1810   1   1.0956e+02   3.9246e+02 ;    C31 - C34    - H54
  1803  1806  1813   1   1.0797e+02   7.1379e+02 ;    C31 - C34    - O26
  1803  1806  1814   1   1.1151e+02   5.4308e+02 ;    C31 - C34    - C36
  1804  1805  1808   1   1.0956e+02   3.9246e+02 ;    C32 - C33    - H52
  1804  1805  1821   1   1.1019e+02   7.0793e+02 ;    C32 - C33    - O29
  1804  1807  1811   1   1.1022e+02   3.9079e+02 ;    C32 - C35    - H55
  1804  1807  1813   1   1.0797e+02   7.1379e+02 ;    C32 - C35    - O26
  1804  1807  1823   1   1.0797e+02   7.1379e+02 ;    C32 - C35    - O30
  1804  1819  1820   1   1.0726e+02   4.1003e+02 ;    C32 - O28    - H60
  1805  1803  1806   1   1.1151e+02   5.4308e+02 ;    C33 - C31    - C34
  1805  1803  1812   1   1.0956e+02   3.9246e+02 ;    C33 - C31    - H56
  1805  1804  1807   1   1.1151e+02   5.4308e+02 ;    C33 - C32    - C35
  1805  1804  1809   1   1.0956e+02   3.9246e+02 ;    C33 - C32    - H53
  1805  1804  1819   1   1.1019e+02   7.0793e+02 ;    C33 - C32    - O28
  1805  1821  1822   1   1.0726e+02   4.1003e+02 ;    C33 - O29    - H61
  1806  1803  1812   1   1.0956e+02   3.9246e+02 ;    C34 - C31    - H56
  1806  1813  1807   1   1.1248e+02   5.5480e+02 ;    C34 - O26    - C35
  1806  1814  1815   1   1.0956e+02   3.9246e+02 ;    C34 - C36    - H57
  1806  1814  1816   1   1.0956e+02   3.9246e+02 ;    C34 - C36    - H58
  1806  1814  1817   1   1.1019e+02   7.0793e+02 ;    C34 - C36    - O27
  1807  1804  1809   1   1.0956e+02   3.9246e+02 ;    C35 - C32    - H53
  1807  1804  1819   1   1.1019e+02   7.0793e+02 ;    C35 - C32    - O28
  1807  1823  1824   1   1.1248e+02   5.5480e+02 ;    C35 - O30    - C37
  1808  1805  1821   1   1.1026e+02   5.2300e+02 ;    H52 - C33    - O29
  1809  1804  1819   1   1.1026e+02   5.2300e+02 ;    H53 - C32    - O28
  1810  1806  1813   1   1.0978e+02   5.2216e+02 ;    H54 - C34    - O26
  1810  1806  1814   1   1.0956e+02   3.9246e+02 ;    H54 - C34    - C36
  1811  1807  1813   1   1.0958e+02   5.2216e+02 ;    H55 - C35    - O26
  1811  1807  1823   1   1.0958e+02   5.2216e+02 ;    H55 - C35    - O30
  1813  1806  1814   1   1.0797e+02   7.1379e+02 ;    O26 - C34    - C36
  1813  1807  1823   1   1.0829e+02   9.2801e+02 ;    O26 - C35    - O30
  1814  1817  1818   1   1.0726e+02   4.1003e+02 ;    C36 - O27    - H59
  1815  1814  1816   1   1.0846e+02   3.2468e+02 ;    H57 - C36    - H58
  1815  1814  1817   1   1.1026e+02   5.2300e+02 ;    H57 - C36    - O27
  1816  1814  1817   1   1.1026e+02   5.2300e+02 ;    H58 - C36    - O27
  1823  1824  1826   1   1.0797e+02   7.1379e+02 ;    O30 - C37    - C39
  1823  1824  1827   1   1.0797e+02   7.1379e+02 ;    O30 - C37    - C40
  1823  1824  1830   1   1.0978e+02   5.2216e+02 ;    O30 - C37    - H63
  1824  1826  1833   1   1.0956e+02   3.9246e+02 ;    C37 - C39    - H66
  1824  1826  1838   1   1.0797e+02   7.1379e+02 ;    C37 - C39    - O33
  1824  1826  1839   1   1.1151e+02   5.4308e+02 ;    C37 - C39    - C42
  1824  1827  1828   1   1.1151e+02   5.4308e+02 ;    C37 - C40    - C41
  1824  1827  1831   1   1.0956e+02   3.9246e+02 ;    C37 - C40    - H64
  1824  1827  1834   1   1.1019e+02   7.0793e+02 ;    C37 - C40    - O31
  1825  1828  1827   1   1.1151e+02   5.4308e+02 ;    C38 - C41    - C40
  1825  1828  1832   1   1.0956e+02   3.9246e+02 ;    C38 - C41    - H65
  1825  1828  1836   1   1.1019e+02   7.0793e+02 ;    C38 - C41    - O32
  1825  1838  1826   1   1.1248e+02   5.5480e+02 ;    C38 - O33    - C39
  1825  1844  1845   1   1.1248e+02   5.5480e+02 ;    C38 - O35    - C43
  1826  1824  1827   1   1.1151e+02   5.4308e+02 ;    C39 - C37    - C40
  1826  1824  1830   1   1.0956e+02   3.9246e+02 ;    C39 - C37    - H63
  1826  1839  1840   1   1.0956e+02   3.9246e+02 ;    C39 - C42    - H69
  1826  1839  1841   1   1.0956e+02   3.9246e+02 ;    C39 - C42    - H70
  1826  1839  1842   1   1.1019e+02   7.0793e+02 ;    C39 - C42    - O34
  1827  1824  1830   1   1.0956e+02   3.9246e+02 ;    C40 - C37    - H63
  1827  1828  1832   1   1.0956e+02   3.9246e+02 ;    C40 - C41    - H65
  1827  1828  1836   1   1.1019e+02   7.0793e+02 ;    C40 - C41    - O32
  1827  1834  1835   1   1.0726e+02   4.1003e+02 ;    C40 - O31    - H67
  1828  1825  1829   1   1.1022e+02   3.9079e+02 ;    C41 - C38    - H62
  1828  1825  1838   1   1.0797e+02   7.1379e+02 ;    C41 - C38    - O33
  1828  1825  1844   1   1.0797e+02   7.1379e+02 ;    C41 - C38    - O35
  1828  1827  1831   1   1.0956e+02   3.9246e+02 ;    C41 - C40    - H64
  1828  1827  1834   1   1.1019e+02   7.0793e+02 ;    C41 - C40    - O31
  1828  1836  1837   1   1.0726e+02   4.1003e+02 ;    C41 - O32    - H68
  1829  1825  1838   1   1.0958e+02   5.2216e+02 ;    H62 - C38    - O33
  1829  1825  1844   1   1.0958e+02   5.2216e+02 ;    H62 - C38    - O35
  1831  1827  1834   1   1.1026e+02   5.2300e+02 ;    H64 - C40    - O31
  1832  1828  1836   1   1.1026e+02   5.2300e+02 ;    H65 - C41    - O32
  1833  1826  1838   1   1.0978e+02   5.2216e+02 ;    H66 - C39    - O33
  1833  1826  1839   1   1.0956e+02   3.9246e+02 ;    H66 - C39    - C42
  1838  1825  1844   1   1.0829e+02   9.2801e+02 ;    O33 - C38    - O35
  1838  1826  1839   1   1.0797e+02   7.1379e+02 ;    O33 - C39    - C42
  1839  1842  1843   1   1.0726e+02   4.1003e+02 ;    C42 - O34    - H71
  1840  1839  1841   1   1.0846e+02   3.2468e+02 ;    H69 - C42    - H70
  1840  1839  1842   1   1.1026e+02   5.2300e+02 ;    H69 - C42    - O34
  1841  1839  1842   1   1.1026e+02   5.2300e+02 ;    H70 - C42    - O34
  1844  1845  1847   1   1.0797e+02   7.1379e+02 ;    O35 - C43    - C45
  1844  1845  1848   1   1.0797e+02   7.1379e+02 ;    O35 - C43    - C46
  1844  1845  1854   1   1.0978e+02   5.2216e+02 ;    O35 - C43    - H76
  1845  1847  1846   1   1.1151e+02   5.4308e+02 ;    C43 - C45    - C44
  1845  1847  1850   1   1.0956e+02   3.9246e+02 ;    C43 - C45    - H72
  1845  1847  1863   1   1.1019e+02   7.0793e+02 ;    C43 - C45    - O39
  1845  1848  1852   1   1.0956e+02   3.9246e+02 ;    C43 - C46    - H74
  1845  1848  1855   1   1.0797e+02   7.1379e+02 ;    C43 - C46    - O36
  1845  1848  1856   1   1.1151e+02   5.4308e+02 ;    C43 - C46    - C48
  1846  1847  1850   1   1.0956e+02   3.9246e+02 ;    C44 - C45    - H72
  1846  1847  1863   1   1.1019e+02   7.0793e+02 ;    C44 - C45    - O39
  1846  1849  1853   1   1.1022e+02   3.9079e+02 ;    C44 - C47    - H75
  1846  1849  1855   1   1.0797e+02   7.1379e+02 ;    C44 - C47    - O36
  1846  1849  1865   1   1.0797e+02   7.1379e+02 ;    C44 - C47    - O40
  1846  1861  1862   1   1.0726e+02   4.1003e+02 ;    C44 - O38    - H80
  1847  1845  1848   1   1.1151e+02   5.4308e+02 ;    C45 - C43    - C46
  1847  1845  1854   1   1.0956e+02   3.9246e+02 ;    C45 - C43    - H76
  1847  1846  1849   1   1.1151e+02   5.4308e+02 ;    C45 - C44    - C47
  1847  1846  1851   1   1.0956e+02   3.9246e+02 ;    C45 - C44    - H73
  1847  1846  1861   1   1.1019e+02   7.0793e+02 ;    C45 - C44    - O38
  1847  1863  1864   1   1.0726e+02   4.1003e+02 ;    C45 - O39    - H81
  1848  1845  1854   1   1.0956e+02   3.9246e+02 ;    C46 - C43    - H76
  1848  1855  1849   1   1.1248e+02   5.5480e+02 ;    C46 - O36    - C47
  1848  1856  1857   1   1.0956e+02   3.9246e+02 ;    C46 - C48    - H77
  1848  1856  1858   1   1.0956e+02   3.9246e+02 ;    C46 - C48    - H78
  1848  1856  1859   1   1.1019e+02   7.0793e+02 ;    C46 - C48    - O37
  1849  1846  1851   1   1.0956e+02   3.9246e+02 ;    C47 - C44    - H73
  1849  1846  1861   1   1.1019e+02   7.0793e+02 ;    C47 - C44    - O38
  1849  1865  1866   1   1.1248e+02   5.5480e+02 ;    C47 - O40    - C49
  1850  1847  1863   1   1.1026e+02   5.2300e+02 ;    H72 - C45    - O39
  1851  1846  1861   1   1.1026e+02   5.2300e+02 ;    H73 - C44    - O38
  1852  1848  1855   1   1.0978e+02   5.2216e+02 ;    H74 - C46    - O36
  1852  1848  1856   1   1.0956e+02   3.9246e+02 ;    H74 - C46    - C48
  1853  1849  1855   1   1.0958e+02   5.2216e+02 ;    H75 - C47    - O36
  1853  1849  1865   1   1.0958e+02   5.2216e+02 ;    H75 - C47    - O40
  1855  1848  1856   1   1.0797e+02   7.1379e+02 ;    O36 - C46    - C48
  1855  1849  1865   1   1.0829e+02   9.2801e+02 ;    O36 - C47    - O40
  1856  1859  1860   1   1.0726e+02   4.1003e+02 ;    C48 - O37    - H79
  1857  1856  1858   1   1.0846e+02   3.2468e+02 ;    H77 - C48    - H78
  1857  1856  1859   1   1.1026e+02   5.2300e+02 ;    H77 - C48    - O37
  1858  1856  1859   1   1.1026e+02   5.2300e+02 ;    H78 - C48    - O37
  1865  1866  1868   1   1.0797e+02   7.1379e+02 ;    O40 - C49    - C51
  1865  1866  1869   1   1.0797e+02   7.1379e+02 ;    O40 - C49    - C52
  1865  1866  1872   1   1.0978e+02   5.2216e+02 ;    O40 - C49    - H83
  1866  1868  1875   1   1.0956e+02   3.9246e+02 ;    C49 - C51    - H86
  1866  1868  1880   1   1.0797e+02   7.1379e+02 ;    C49 - C51    - O43
  1866  1868  1881   1   1.1151e+02   5.4308e+02 ;    C49 - C51    - C54
  1866  1869  1870   1   1.1151e+02   5.4308e+02 ;    C49 - C52    - C53
  1866  1869  1873   1   1.0956e+02   3.9246e+02 ;    C49 - C52    - H84
  1866  1869  1876   1   1.1019e+02   7.0793e+02 ;    C49 - C52    - O41
  1867  1870  1869   1   1.1151e+02   5.4308e+02 ;    C50 - C53    - C52
  1867  1870  1874   1   1.0956e+02   3.9246e+02 ;    C50 - C53    - H85
  1867  1870  1878   1   1.1019e+02   7.0793e+02 ;    C50 - C53    - O42
  1867  1880  1868   1   1.1248e+02   5.5480e+02 ;    C50 - O43    - C51
  1867  1886  1887   1   1.1248e+02   5.5480e+02 ;    C50 - O45    - C55
  1868  1866  1869   1   1.1151e+02   5.4308e+02 ;    C51 - C49    - C52
  1868  1866  1872   1   1.0956e+02   3.9246e+02 ;    C51 - C49    - H83
  1868  1881  1882   1   1.0956e+02   3.9246e+02 ;    C51 - C54    - H89
  1868  1881  1883   1   1.0956e+02   3.9246e+02 ;    C51 - C54    - H90
  1868  1881  1884   1   1.1019e+02   7.0793e+02 ;    C51 - C54    - O44
  1869  1866  1872   1   1.0956e+02   3.9246e+02 ;    C52 - C49    - H83
  1869  1870  1874   1   1.0956e+02   3.9246e+02 ;    C52 - C53    - H85
  1869  1870  1878   1   1.1019e+02   7.0793e+02 ;    C52 - C53    - O42
  1869  1876  1877   1   1.0726e+02   4.1003e+02 ;    C52 - O41    - H87
  1870  1867  1871   1   1.1022e+02   3.9079e+02 ;    C53 - C50    - H82
  1870  1867  1880   1   1.0797e+02   7.1379e+02 ;    C53 - C50    - O43
  1870  1867  1886   1   1.0797e+02   7.1379e+02 ;    C53 - C50    - O45
  1870  1869  1873   1   1.0956e+02   3.9246e+02 ;    C53 - C52    - H84
  1870  1869  1876   1   1.1019e+02   7.0793e+02 ;    C53 - C52    - O41
  1870  1878  1879   1   1.0726e+02   4.1003e+02 ;    C53 - O42    - H88
  1871  1867  1880   1   1.0958e+02   5.2216e+02 ;    H82 - C50    - O43
  1871  1867  1886   1   1.0958e+02   5.2216e+02 ;    H82 - C50    - O45
  1873  1869  1876   1   1.1026e+02   5.2300e+02 ;    H84 - C52    - O41
  1874  1870  1878   1   1.1026e+02   5.2300e+02 ;    H85 - C53    - O42
  1875  1868  1880   1   1.0978e+02   5.2216e+02 ;    H86 - C51    - O43
  1875  1868  1881   1   1.0956e+02   3.9246e+02 ;    H86 - C51    - C54
  1880  1867  1886   1   1.0829e+02   9.2801e+02 ;    O43 - C50    - O45
  1880  1868  1881   1   1.0797e+02   7.1379e+02 ;    O43 - C51    - C54
  1881  1884  1885   1   1.0726e+02   4.1003e+02 ;    C54 - O44    - H91
  1882  1881  1883   1   1.0846e+02   3.2468e+02 ;    H89 - C54    - H90
  1882  1881  1884   1   1.1026e+02   5.2300e+02 ;    H89 - C54    - O44
  1883  1881  1884   1   1.1026e+02   5.2300e+02 ;    H90 - C54    - O44
  1886  1887  1889   1   1.0797e+02   7.1379e+02 ;    O45 - C55    - C57
  1886  1887  1890   1   1.0797e+02   7.1379e+02 ;    O45 - C55    - C58
  1886  1887  1896   1   1.0978e+02   5.2216e+02 ;    O45 - C55    - H96
  1887  1889  1888   1   1.1151e+02   5.4308e+02 ;    C55 - C57    - C56
  1887  1889  1892   1   1.0956e+02   3.9246e+02 ;    C55 - C57    - H92
  1887  1889  1905   1   1.1019e+02   7.0793e+02 ;    C55 - C57    - O49
  1887  1890  1894   1   1.0956e+02   3.9246e+02 ;    C55 - C58    - H94
  1887  1890  1897   1   1.0797e+02   7.1379e+02 ;    C55 - C58    - O46
  1887  1890  1898   1   1.1151e+02   5.4308e+02 ;    C55 - C58    - C60
  1888  1889  1892   1   1.0956e+02   3.9246e+02 ;    C56 - C57    - H92
  1888  1889  1905   1   1.1019e+02   7.0793e+02 ;    C56 - C57    - O49
  1888  1891  1895   1   1.1022e+02   3.9079e+02 ;    C56 - C59    - H95
  1888  1891  1897   1   1.0797e+02   7.1379e+02 ;    C56 - C59    - O46
  1888  1891  1907   1   1.1019e+02   7.0793e+02 ;    C56 - C59    - O50
  1888  1903  1904   1   1.0726e+02   4.1003e+02 ;    C56 - O48    - H100
  1889  1887  1890   1   1.1151e+02   5.4308e+02 ;    C57 - C55    - C58
  1889  1887  1896   1   1.0956e+02   3.9246e+02 ;    C57 - C55    - H96
  1889  1888  1891   1   1.1151e+02   5.4308e+02 ;    C57 - C56    - C59
  1889  1888  1893   1   1.0956e+02   3.9246e+02 ;    C57 - C56    - H93
  1889  1888  1903   1   1.1019e+02   7.0793e+02 ;    C57 - C56    - O48
  1889  1905  1906   1   1.0726e+02   4.1003e+02 ;    C57 - O49    - H101
  1890  1887  1896   1   1.0956e+02   3.9246e+02 ;    C58 - C55    - H96
  1890  1897  1891   1   1.1248e+02   5.5480e+02 ;    C58 - O46    - C59
  1890  1898  1899   1   1.0956e+02   3.9246e+02 ;    C58 - C60    - H97
  1890  1898  1900   1   1.0956e+02   3.9246e+02 ;    C58 - C60    - H98
  1890  1898  1901   1   1.1019e+02   7.0793e+02 ;    C58 - C60    - O47
  1891  1888  1893   1   1.0956e+02   3.9246e+02 ;    C59 - C56    - H93
  1891  1888  1903   1   1.1019e+02   7.0793e+02 ;    C59 - C56    - O48
  1891  1907  1908   1   1.0726e+02   4.1003e+02 ;    C59 - O50    - H102
  1892  1889  1905   1   1.1026e+02   5.2300e+02 ;    H92 - C57    - O49
  1893  1888  1903   1   1.1026e+02   5.2300e+02 ;    H93 - C56    - O48
  1894  1890  1897   1   1.0978e+02   5.2216e+02 ;    H94 - C58    - O46
  1894  1890  1898   1   1.0956e+02   3.9246e+02 ;    H94 - C58    - C60
  1895  1891  1897   1   1.0958e+02   5.2216e+02 ;    H95 - C59    - O46
  1895  1891  1907   1   1.0943e+02   5.2551e+02 ;    H95 - C59    - O50
  1897  1890  1898   1   1.0797e+02   7.1379e+02 ;    O46 - C58    - C60
  1897  1891  1907   1   1.0938e+02   9.2634e+02 ;    O46 - C59    - O50
  1898  1901  1902   1   1.0726e+02   4.1003e+02 ;    C60 - O47    - H99
  1899  1898  1900   1   1.0846e+02   3.2468e+02 ;    H97 - C60    - H98
  1899  1898  1901   1   1.1026e+02   5.2300e+02 ;    H97 - C60    - O47
  1900  1898  1901   1   1.1026e+02   5.2300e+02 ;    H98 - C60    - O47
  1909  1910  1912   1   1.0980e+02   3.9162e+02 ;     H1 - C1     - C3
  1909  1910  1913   1   1.0980e+02   3.9162e+02 ;     H1 - C1     - C4
  1909  1910  1916   1   1.0758e+02   3.2635e+02 ;     H1 - C1     - H3
  1910  1912  1919   1   1.0956e+02   3.9246e+02 ;     C1 - C3     - H6
  1910  1912  1924   1   1.0797e+02   7.1379e+02 ;     C1 - C3     - O3
  1910  1912  1925   1   1.1151e+02   5.4308e+02 ;     C1 - C3     - C6
  1910  1913  1914   1   1.1151e+02   5.4308e+02 ;     C1 - C4     - C5
  1910  1913  1917   1   1.0956e+02   3.9246e+02 ;     C1 - C4     - H4
  1910  1913  1920   1   1.1019e+02   7.0793e+02 ;     C1 - C4     - O1
  1911  1914  1913   1   1.1151e+02   5.4308e+02 ;     C2 - C5     - C4
  1911  1914  1918   1   1.0956e+02   3.9246e+02 ;     C2 - C5     - H5
  1911  1914  1922   1   1.1019e+02   7.0793e+02 ;     C2 - C5     - O2
  1911  1924  1912   1   1.1248e+02   5.5480e+02 ;     C2 - O3     - C3
  1911  1930  1931   1   1.1248e+02   5.5480e+02 ;     C2 - O5     - C7
  1912  1910  1913   1   1.1151e+02   5.4308e+02 ;     C3 - C1     - C4
  1912  1910  1916   1   1.0980e+02   3.9162e+02 ;     C3 - C1     - H3
  1912  1925  1926   1   1.0956e+02   3.9246e+02 ;     C3 - C6     - H9
  1912  1925  1927   1   1.0956e+02   3.9246e+02 ;     C3 - C6     - H10
  1912  1925  1928   1   1.1019e+02   7.0793e+02 ;     C3 - C6     - O4
  1913  1910  1916   1   1.0980e+02   3.9162e+02 ;     C4 - C1     - H3
  1913  1914  1918   1   1.0956e+02   3.9246e+02 ;     C4 - C5     - H5
  1913  1914  1922   1   1.1019e+02   7.0793e+02 ;     C4 - C5     - O2
  1913  1920  1921   1   1.0726e+02   4.1003e+02 ;     C4 - O1     - H7
  1914  1911  1915   1   1.1022e+02   3.9079e+02 ;     C5 - C2     - H2
  1914  1911  1924   1   1.0797e+02   7.1379e+02 ;     C5 - C2     - O3
  1914  1911  1930   1   1.0797e+02   7.1379e+02 ;     C5 - C2     - O5
  1914  1913  1917   1   1.0956e+02   3.9246e+02 ;     C5 - C4     - H4
  1914  1913  1920   1   1.1019e+02   7.0793e+02 ;     C5 - C4     - O1
  1914  1922  1923   1   1.0726e+02   4.1003e+02 ;     C5 - O2     - H8
  1915  1911  1924   1   1.0958e+02   5.2216e+02 ;     H2 - C2     - O3
  1915  1911  1930   1   1.0958e+02   5.2216e+02 ;     H2 - C2     - O5
  1917  1913  1920   1   1.1026e+02   5.2300e+02 ;     H4 - C4     - O1
  1918  1914  1922   1   1.1026e+02   5.2300e+02 ;     H5 - C5     - O2
  1919  1912  1924   1   1.0978e+02   5.2216e+02 ;     H6 - C3     - O3
  1919  1912  1925   1   1.0956e+02   3.9246e+02 ;     H6 - C3     - C6
  1924  1911  1930   1   1.0829e+02   9.2801e+02 ;     O3 - C2     - O5
  1924  1912  1925   1   1.0797e+02   7.1379e+02 ;     O3 - C3     - C6
  1925  1928  1929   1   1.0726e+02   4.1003e+02 ;     C6 - O4     - H11
  1926  1925  1927   1   1.0846e+02   3.2468e+02 ;     H9 - C6     - H10
  1926  1925  1928   1   1.1026e+02   5.2300e+02 ;     H9 - C6     - O4
  1927  1925  1928   1   1.1026e+02   5.2300e+02 ;    H10 - C6     - O4
  1930  1931  1933   1   1.0797e+02   7.1379e+02 ;     O5 - C7     - C9
  1930  1931  1934   1   1.0797e+02   7.1379e+02 ;     O5 - C7     - C10
  1930  1931  1940   1   1.0978e+02   5.2216e+02 ;     O5 - C7     - H16
  1931  1933  1932   1   1.1151e+02   5.4308e+02 ;     C7 - C9     - C8
  1931  1933  1936   1   1.0956e+02   3.9246e+02 ;     C7 - C9     - H12
  1931  1933  1949   1   1.1019e+02   7.0793e+02 ;     C7 - C9     - O9
  1931  1934  1938   1   1.0956e+02   3.9246e+02 ;     C7 - C10    - H14
  1931  1934  1941   1   1.0797e+02   7.1379e+02 ;     C7 - C10    - O6
  1931  1934  1942   1   1.1151e+02   5.4308e+02 ;     C7 - C10    - C12
  1932  1933  1936   1   1.0956e+02   3.9246e+02 ;     C8 - C9     - H12
  1932  1933  1949   1   1.1019e+02   7.0793e+02 ;     C8 - C9     - O9
  1932  1935  1939   1   1.1022e+02   3.9079e+02 ;     C8 - C11    - H15
  1932  1935  1941   1   1.0797e+02   7.1379e+02 ;     C8 - C11    - O6
  1932  1935  1951   1   1.0797e+02   7.1379e+02 ;     C8 - C11    - O10
  1932  1947  1948   1   1.0726e+02   4.1003e+02 ;     C8 - O8     - H20
  1933  1931  1934   1   1.1151e+02   5.4308e+02 ;     C9 - C7     - C10
  1933  1931  1940   1   1.0956e+02   3.9246e+02 ;     C9 - C7     - H16
  1933  1932  1935   1   1.1151e+02   5.4308e+02 ;     C9 - C8     - C11
  1933  1932  1937   1   1.0956e+02   3.9246e+02 ;     C9 - C8     - H13
  1933  1932  1947   1   1.1019e+02   7.0793e+02 ;     C9 - C8     - O8
  1933  1949  1950   1   1.0726e+02   4.1003e+02 ;     C9 - O9     - H21
  1934  1931  1940   1   1.0956e+02   3.9246e+02 ;    C10 - C7     - H16
  1934  1941  1935   1   1.1248e+02   5.5480e+02 ;    C10 - O6     - C11
  1934  1942  1943   1   1.0956e+02   3.9246e+02 ;    C10 - C12    - H17
  1934  1942  1944   1   1.0956e+02   3.9246e+02 ;    C10 - C12    - H18
  1934  1942  1945   1   1.1019e+02   7.0793e+02 ;    C10 - C12    - O7
  1935  1932  1937   1   1.0956e+02   3.9246e+02 ;    C11 - C8     - H13
  1935  1932  1947   1   1.1019e+02   7.0793e+02 ;    C11 - C8     - O8
  1935  1951  1952   1   1.1248e+02   5.5480e+02 ;    C11 - O10    - C13
  1936  1933  1949   1   1.1026e+02   5.2300e+02 ;    H12 - C9     - O9
  1937  1932  1947   1   1.1026e+02   5.2300e+02 ;    H13 - C8     - O8
  1938  1934  1941   1   1.0978e+02   5.2216e+02 ;    H14 - C10    - O6
  1938  1934  1942   1   1.0956e+02   3.9246e+02 ;    H14 - C10    - C12
  1939  1935  1941   1   1.0958e+02   5.2216e+02 ;    H15 - C11    - O6
  1939  1935  1951   1   1.0958e+02   5.2216e+02 ;    H15 - C11    - O10
  1941  1934  1942   1   1.0797e+02   7.1379e+02 ;     O6 - C10    - C12
  1941  1935  1951   1   1.0829e+02   9.2801e+02 ;     O6 - C11    - O10
  1942  1945  1946   1   1.0726e+02   4.1003e+02 ;    C12 - O7     - H19
  1943  1942  1944   1   1.0846e+02   3.2468e+02 ;    H17 - C12    - H18
  1943  1942  1945   1   1.1026e+02   5.2300e+02 ;    H17 - C12    - O7
  1944  1942  1945   1   1.1026e+02   5.2300e+02 ;    H18 - C12    - O7
  1951  1952  1954   1   1.0797e+02   7.1379e+02 ;    O10 - C13    - C15
  1951  1952  1955   1   1.0797e+02   7.1379e+02 ;    O10 - C13    - C16
  1951  1952  1958   1   1.0978e+02   5.2216e+02 ;    O10 - C13    - H23
  1952  1954  1961   1   1.0956e+02   3.9246e+02 ;    C13 - C15    - H26
  1952  1954  1966   1   1.0797e+02   7.1379e+02 ;    C13 - C15    - O13
  1952  1954  1967   1   1.1151e+02   5.4308e+02 ;    C13 - C15    - C18
  1952  1955  1956   1   1.1151e+02   5.4308e+02 ;    C13 - C16    - C17
  1952  1955  1959   1   1.0956e+02   3.9246e+02 ;    C13 - C16    - H24
  1952  1955  1962   1   1.1019e+02   7.0793e+02 ;    C13 - C16    - O11
  1953  1956  1955   1   1.1151e+02   5.4308e+02 ;    C14 - C17    - C16
  1953  1956  1960   1   1.0956e+02   3.9246e+02 ;    C14 - C17    - H25
  1953  1956  1964   1   1.1019e+02   7.0793e+02 ;    C14 - C17    - O12
  1953  1966  1954   1   1.1248e+02   5.5480e+02 ;    C14 - O13    - C15
  1953  1972  1973   1   1.1248e+02   5.5480e+02 ;    C14 - O15    - C19
  1954  1952  1955   1   1.1151e+02   5.4308e+02 ;    C15 - C13    - C16
  1954  1952  1958   1   1.0956e+02   3.9246e+02 ;    C15 - C13    - H23
  1954  1967  1968   1   1.0956e+02   3.9246e+02 ;    C15 - C18    - H29
  1954  1967  1969   1   1.0956e+02   3.9246e+02 ;    C15 - C18    - H30
  1954  1967  1970   1   1.1019e+02   7.0793e+02 ;    C15 - C18    - O14
  1955  1952  1958   1   1.0956e+02   3.9246e+02 ;    C16 - C13    - H23
  1955  1956  1960   1   1.0956e+02   3.9246e+02 ;    C16 - C17    - H25
  1955  1956  1964   1   1.1019e+02   7.0793e+02 ;    C16 - C17    - O12
  1955  1962  1963   1   1.0726e+02   4.1003e+02 ;    C16 - O11    - H27
  1956  1953  1957   1   1.1022e+02   3.9079e+02 ;    C17 - C14    - H22
  1956  1953  1966   1   1.0797e+02   7.1379e+02 ;    C17 - C14    - O13
  1956  1953  1972   1   1.0797e+02   7.1379e+02 ;    C17 - C14    - O15
  1956  1955  1959   1   1.0956e+02   3.9246e+02 ;    C17 - C16    - H24
  1956  1955  1962   1   1.1019e+02   7.0793e+02 ;    C17 - C16    - O11
  1956  1964  1965   1   1.0726e+02   4.1003e+02 ;    C17 - O12    - H28
  1957  1953  1966   1   1.0958e+02   5.2216e+02 ;    H22 - C14    - O13
  1957  1953  1972   1   1.0958e+02   5.2216e+02 ;    H22 - C14    - O15
  1959  1955  1962   1   1.1026e+02   5.2300e+02 ;    H24 - C16    - O11
  1960  1956  1964   1   1.1026e+02   5.2300e+02 ;    H25 - C17    - O12
  1961  1954  1966   1   1.0978e+02   5.2216e+02 ;    H26 - C15    - O13
  1961  1954  1967   1   1.0956e+02   3.9246e+02 ;    H26 - C15    - C18
  1966  1953  1972   1   1.0829e+02   9.2801e+02 ;    O13 - C14    - O15
  1966  1954  1967   1   1.0797e+02   7.1379e+02 ;    O13 - C15    - C18
  1967  1970  1971   1   1.0726e+02   4.1003e+02 ;    C18 - O14    - H31
  1968  1967  1969   1   1.0846e+02   3.2468e+02 ;    H29 - C18    - H30
  1968  1967  1970   1   1.1026e+02   5.2300e+02 ;    H29 - C18    - O14
  1969  1967  1970   1   1.1026e+02   5.2300e+02 ;    H30 - C18    - O14
  1972  1973  1975   1   1.0797e+02   7.1379e+02 ;    O15 - C19    - C21
  1972  1973  1976   1   1.0797e+02   7.1379e+02 ;    O15 - C19    - C22
  1972  1973  1982   1   1.0978e+02   5.2216e+02 ;    O15 - C19    - H36
  1973  1975  1974   1   1.1151e+02   5.4308e+02 ;    C19 - C21    - C20
  1973  1975  1978   1   1.0956e+02   3.9246e+02 ;    C19 - C21    - H32
  1973  1975  1991   1   1.1019e+02   7.0793e+02 ;    C19 - C21    - O19
  1973  1976  1980   1   1.0956e+02   3.9246e+02 ;    C19 - C22    - H34
  1973  1976  1983   1   1.0797e+02   7.1379e+02 ;    C19 - C22    - O16
  1973  1976  1984   1   1.1151e+02   5.4308e+02 ;    C19 - C22    - C24
  1974  1975  1978   1   1.0956e+02   3.9246e+02 ;    C20 - C21    - H32
  1974  1975  1991   1   1.1019e+02   7.0793e+02 ;    C20 - C21    - O19
  1974  1977  1981   1   1.1022e+02   3.9079e+02 ;    C20 - C23    - H35
  1974  1977  1983   1   1.0797e+02   7.1379e+02 ;    C20 - C23    - O16
  1974  1977  1993   1   1.0797e+02   7.1379e+02 ;    C20 - C23    - O20
  1974  1989  1990   1   1.0726e+02   4.1003e+02 ;    C20 - O18    - H40
  1975  1973  1976   1   1.1151e+02   5.4308e+02 ;    C21 - C19    - C22
  1975  1973  1982   1   1.0956e+02   3.9246e+02 ;    C21 - C19    - H36
  1975  1974  1977   1   1.1151e+02   5.4308e+02 ;    C21 - C20    - C23
  1975  1974  1979   1   1.0956e+02   3.9246e+02 ;    C21 - C20    - H33
  1975  1974  1989   1   1.1019e+02   7.0793e+02 ;    C21 - C20    - O18
  1975  1991  1992   1   1.0726e+02   4.1003e+02 ;    C21 - O19    - H41
  1976  1973  1982   1   1.0956e+02   3.9246e+02 ;    C22 - C19    - H36
  1976  1983  1977   1   1.1248e+02   5.5480e+02 ;    C22 - O16    - C23
  1976  1984  1985   1   1.0956e+02   3.9246e+02 ;    C22 - C24    - H37
  1976  1984  1986   1   1.0956e+02   3.9246e+02 ;    C22 - C24    - H38
  1976  1984  1987   1   1.1019e+02   7.0793e+02 ;    C22 - C24    - O17
  1977  1974  1979   1   1.0956e+02   3.9246e+02 ;    C23 - C20    - H33
  1977  1974  1989   1   1.1019e+02   7.0793e+02 ;    C23 - C20    - O18
  1977  1993  1994   1   1.1248e+02   5.5480e+02 ;    C23 - O20    - C25
  1978  1975  1991   1   1.1026e+02   5.2300e+02 ;    H32 - C21    - O19
  1979  1974  1989   1   1.1026e+02   5.2300e+02 ;    H33 - C20    - O18
  1980  1976  1983   1   1.0978e+02   5.2216e+02 ;    H34 - C22    - O16
  1980  1976  1984   1   1.0956e+02   3.9246e+02 ;    H34 - C22    - C24
  1981  1977  1983   1   1.0958e+02   5.2216e+02 ;    H35 - C23    - O16
  1981  1977  1993   1   1.0958e+02   5.2216e+02 ;    H35 - C23    - O20
  1983  1976  1984   1   1.0797e+02   7.1379e+02 ;    O16 - C22    - C24
  1983  1977  1993   1   1.0829e+02   9.2801e+02 ;    O16 - C23    - O20
  1984  1987  1988   1   1.0726e+02   4.1003e+02 ;    C24 - O17    - H39
  1985  1984  1986   1   1.0846e+02   3.2468e+02 ;    H37 - C24    - H38
  1985  1984  1987   1   1.1026e+02   5.2300e+02 ;    H37 - C24    - O17
  1986  1984  1987   1   1.1026e+02   5.2300e+02 ;    H38 - C24    - O17
  1993  1994  1996   1   1.0797e+02   7.1379e+02 ;    O20 - C25    - C27
  1993  1994  1997   1   1.0797e+02   7.1379e+02 ;    O20 - C25    - C28
  1993  1994  2000   1   1.0978e+02   5.2216e+02 ;    O20 - C25    - H43
  1994  1996  2003   1   1.0956e+02   3.9246e+02 ;    C25 - C27    - H46
  1994  1996  2008   1   1.0797e+02   7.1379e+02 ;    C25 - C27    - O23
  1994  1996  2009   1   1.1151e+02   5.4308e+02 ;    C25 - C27    - C30
  1994  1997  1998   1   1.1151e+02   5.4308e+02 ;    C25 - C28    - C29
  1994  1997  2001   1   1.0956e+02   3.9246e+02 ;    C25 - C28    - H44
  1994  1997  2004   1   1.1019e+02   7.0793e+02 ;    C25 - C28    - O21
  1995  1998  1997   1   1.1151e+02   5.4308e+02 ;    C26 - C29    - C28
  1995  1998  2002   1   1.0956e+02   3.9246e+02 ;    C26 - C29    - H45
  1995  1998  2006   1   1.1019e+02   7.0793e+02 ;    C26 - C29    - O22
  1995  2008  1996   1   1.1248e+02   5.5480e+02 ;    C26 - O23    - C27
  1995  2014  2015   1   1.1248e+02   5.5480e+02 ;    C26 - O25    - C31
  1996  1994  1997   1   1.1151e+02   5.4308e+02 ;    C27 - C25    - C28
  1996  1994  2000   1   1.0956e+02   3.9246e+02 ;    C27 - C25    - H43
  1996  2009  2010   1   1.0956e+02   3.9246e+02 ;    C27 - C30    - H49
  1996  2009  2011   1   1.0956e+02   3.9246e+02 ;    C27 - C30    - H50
  1996  2009  2012   1   1.1019e+02   7.0793e+02 ;    C27 - C30    - O24
  1997  1994  2000   1   1.0956e+02   3.9246e+02 ;    C28 - C25    - H43
  1997  1998  2002   1   1.0956e+02   3.9246e+02 ;    C28 - C29    - H45
  1997  1998  2006   1   1.1019e+02   7.0793e+02 ;    C28 - C29    - O22
  1997  2004  2005   1   1.0726e+02   4.1003e+02 ;    C28 - O21    - H47
  1998  1995  1999   1   1.1022e+02   3.9079e+02 ;    C29 - C26    - H42
  1998  1995  2008   1   1.0797e+02   7.1379e+02 ;    C29 - C26    - O23
  1998  1995  2014   1   1.0797e+02   7.1379e+02 ;    C29 - C26    - O25
  1998  1997  2001   1   1.0956e+02   3.9246e+02 ;    C29 - C28    - H44
  1998  1997  2004   1   1.1019e+02   7.0793e+02 ;    C29 - C28    - O21
  1998  2006  2007   1   1.0726e+02   4.1003e+02 ;    C29 - O22    - H48
  1999  1995  2008   1   1.0958e+02   5.2216e+02 ;    H42 - C26    - O23
  1999  1995  2014   1   1.0958e+02   5.2216e+02 ;    H42 - C26    - O25
  2001  1997  2004   1   1.1026e+02   5.2300e+02 ;    H44 - C28    - O21
  2002  1998  2006   1   1.1026e+02   5.2300e+02 ;    H45 - C29    - O22
  2003  1996  2008   1   1.0978e+02   5.2216e+02 ;    H46 - C27    - O23
  2003  1996  2009   1   1.0956e+02   3.9246e+02 ;    H46 - C27    - C30
  2008  1995  2014   1   1.0829e+02   9.2801e+02 ;    O23 - C26    - O25
  2008  1996  2009   1   1.0797e+02   7.1379e+02 ;    O23 - C27    - C30
  2009  2012  2013   1   1.0726e+02   4.1003e+02 ;    C30 - O24    - H51
  2010  2009  2011   1   1.0846e+02   3.2468e+02 ;    H49 - C30    - H50
  2010  2009  2012   1   1.1026e+02   5.2300e+02 ;    H49 - C30    - O24
  2011  2009  2012   1   1.1026e+02   5.2300e+02 ;    H50 - C30    - O24
  2014  2015  2017   1   1.0797e+02   7.1379e+02 ;    O25 - C31    - C33
  2014  2015  2018   1   1.0797e+02   7.1379e+02 ;    O25 - C31    - C34
  2014  2015  2024   1   1.0978e+02   5.2216e+02 ;    O25 - C31    - H56
  2015  2017  2016   1   1.1151e+02   5.4308e+02 ;    C31 - C33    - C32
  2015  2017  2020   1   1.0956e+02   3.9246e+02 ;    C31 - C33    - H52
  2015  2017  2033   1   1.1019e+02   7.0793e+02 ;    C31 - C33    - O29
  2015  2018  2022   1   1.0956e+02   3.9246e+02 ;    C31 - C34    - H54
  2015  2018  2025   1   1.0797e+02   7.1379e+02 ;    C31 - C34    - O26
  2015  2018  2026   1   1.1151e+02   5.4308e+02 ;    C31 - C34    - C36
  2016  2017  2020   1   1.0956e+02   3.9246e+02 ;    C32 - C33    - H52
  2016  2017  2033   1   1.1019e+02   7.0793e+02 ;    C32 - C33    - O29
  2016  2019  2023   1   1.1022e+02   3.9079e+02 ;    C32 - C35    - H55
  2016  2019  2025   1   1.0797e+02   7.1379e+02 ;    C32 - C35    - O26
  2016  2019  2035   1   1.0797e+02   7.1379e+02 ;    C32 - C35    - O30
  2016  2031  2032   1   1.0726e+02   4.1003e+02 ;    C32 - O28    - H60
  2017  2015  2018   1   1.1151e+02   5.4308e+02 ;    C33 - C31    - C34
  2017  2015  2024   1   1.0956e+02   3.9246e+02 ;    C33 - C31    - H56
  2017  2016  2019   1   1.1151e+02   5.4308e+02 ;    C33 - C32    - C35
  2017  2016  2021   1   1.0956e+02   3.9246e+02 ;    C33 - C32    - H53
  2017  2016  2031   1   1.1019e+02   7.0793e+02 ;    C33 - C32    - O28
  2017  2033  2034   1   1.0726e+02   4.1003e+02 ;    C33 - O29    - H61
  2018  2015  2024   1   1.0956e+02   3.9246e+02 ;    C34 - C31    - H56
  2018  2025  2019   1   1.1248e+02   5.5480e+02 ;    C34 - O26    - C35
  2018  2026  2027   1   1.0956e+02   3.9246e+02 ;    C34 - C36    - H57
  2018  2026  2028   1   1.0956e+02   3.9246e+02 ;    C34 - C36    - H58
  2018  2026  2029   1   1.1019e+02   7.0793e+02 ;    C34 - C36    - O27
  2019  2016  2021   1   1.0956e+02   3.9246e+02 ;    C35 - C32    - H53
  2019  2016  2031   1   1.1019e+02   7.0793e+02 ;    C35 - C32    - O28
  2019  2035  2036   1   1.1248e+02   5.5480e+02 ;    C35 - O30    - C37
  2020  2017  2033   1   1.1026e+02   5.2300e+02 ;    H52 - C33    - O29
  2021  2016  2031   1   1.1026e+02   5.2300e+02 ;    H53 - C32    - O28
  2022  2018  2025   1   1.0978e+02   5.2216e+02 ;    H54 - C34    - O26
  2022  2018  2026   1   1.0956e+02   3.9246e+02 ;    H54 - C34    - C36
  2023  2019  2025   1   1.0958e+02   5.2216e+02 ;    H55 - C35    - O26
  2023  2019  2035   1   1.0958e+02   5.2216e+02 ;    H55 - C35    - O30
  2025  2018  2026   1   1.0797e+02   7.1379e+02 ;    O26 - C34    - C36
  2025  2019  2035   1   1.0829e+02   9.2801e+02 ;    O26 - C35    - O30
  2026  2029  2030   1   1.0726e+02   4.1003e+02 ;    C36 - O27    - H59
  2027  2026  2028   1   1.0846e+02   3.2468e+02 ;    H57 - C36    - H58
  2027  2026  2029   1   1.1026e+02   5.2300e+02 ;    H57 - C36    - O27
  2028  2026  2029   1   1.1026e+02   5.2300e+02 ;    H58 - C36    - O27
  2035  2036  2038   1   1.0797e+02   7.1379e+02 ;    O30 - C37    - C39
  2035  2036  2039   1   1.0797e+02   7.1379e+02 ;    O30 - C37    - C40
  2035  2036  2042   1   1.0978e+02   5.2216e+02 ;    O30 - C37    - H63
  2036  2038  2045   1   1.0956e+02   3.9246e+02 ;    C37 - C39    - H66
  2036  2038  2050   1   1.0797e+02   7.1379e+02 ;    C37 - C39    - O33
  2036  2038  2051   1   1.1151e+02   5.4308e+02 ;    C37 - C39    - C42
  2036  2039  2040   1   1.1151e+02   5.4308e+02 ;    C37 - C40    - C41
  2036  2039  2043   1   1.0956e+02   3.9246e+02 ;    C37 - C40    - H64
  2036  2039  2046   1   1.1019e+02   7.0793e+02 ;    C37 - C40    - O31
  2037  2040  2039   1   1.1151e+02   5.4308e+02 ;    C38 - C41    - C40
  2037  2040  2044   1   1.0956e+02   3.9246e+02 ;    C38 - C41    - H65
  2037  2040  2048   1   1.1019e+02   7.0793e+02 ;    C38 - C41    - O32
  2037  2050  2038   1   1.1248e+02   5.5480e+02 ;    C38 - O33    - C39
  2037  2056  2057   1   1.1248e+02   5.5480e+02 ;    C38 - O35    - C43
  2038  2036  2039   1   1.1151e+02   5.4308e+02 ;    C39 - C37    - C40
  2038  2036  2042   1   1.0956e+02   3.9246e+02 ;    C39 - C37    - H63
  2038  2051  2052   1   1.0956e+02   3.9246e+02 ;    C39 - C42    - H69
  2038  2051  2053   1   1.0956e+02   3.9246e+02 ;    C39 - C42    - H70
  2038  2051  2054   1   1.1019e+02   7.0793e+02 ;    C39 - C42    - O34
  2039  2036  2042   1   1.0956e+02   3.9246e+02 ;    C40 - C37    - H63
  2039  2040  2044   1   1.0956e+02   3.9246e+02 ;    C40 - C41    - H65
  2039  2040  2048   1   1.1019e+02   7.0793e+02 ;    C40 - C41    - O32
  2039  2046  2047   1   1.0726e+02   4.1003e+02 ;    C40 - O31    - H67
  2040  2037  2041   1   1.1022e+02   3.9079e+02 ;    C41 - C38    - H62
  2040  2037  2050   1   1.0797e+02   7.1379e+02 ;    C41 - C38    - O33
  2040  2037  2056   1   1.0797e+02   7.1379e+02 ;    C41 - C38    - O35
  2040  2039  2043   1   1.0956e+02   3.9246e+02 ;    C41 - C40    - H64
  2040  2039  2046   1   1.1019e+02   7.0793e+02 ;    C41 - C40    - O31
  2040  2048  2049   1   1.0726e+02   4.1003e+02 ;    C41 - O32    - H68
  2041  2037  2050   1   1.0958e+02   5.2216e+02 ;    H62 - C38    - O33
  2041  2037  2056   1   1.0958e+02   5.2216e+02 ;    H62 - C38    - O35
  2043  2039  2046   1   1.1026e+02   5.2300e+02 ;    H64 - C40    - O31
  2044  2040  2048   1   1.1026e+02   5.2300e+02 ;    H65 - C41    - O32
  2045  2038  2050   1   1.0978e+02   5.2216e+02 ;    H66 - C39    - O33
  2045  2038  2051   1   1.0956e+02   3.9246e+02 ;    H66 - C39    - C42
  2050  2037  2056   1   1.0829e+02   9.2801e+02 ;    O33 - C38    - O35
  2050  2038  2051   1   1.0797e+02   7.1379e+02 ;    O33 - C39    - C42
  2051  2054  2055   1   1.0726e+02   4.1003e+02 ;    C42 - O34    - H71
  2052  2051  2053   1   1.0846e+02   3.2468e+02 ;    H69 - C42    - H70
  2052  2051  2054   1   1.1026e+02   5.2300e+02 ;    H69 - C42    - O34
  2053  2051  2054   1   1.1026e+02   5.2300e+02 ;    H70 - C42    - O34
  2056  2057  2059   1   1.0797e+02   7.1379e+02 ;    O35 - C43    - C45
  2056  2057  2060   1   1.0797e+02   7.1379e+02 ;    O35 - C43    - C46
  2056  2057  2066   1   1.0978e+02   5.2216e+02 ;    O35 - C43    - H76
  2057  2059  2058   1   1.1151e+02   5.4308e+02 ;    C43 - C45    - C44
  2057  2059  2062   1   1.0956e+02   3.9246e+02 ;    C43 - C45    - H72
  2057  2059  2075   1   1.1019e+02   7.0793e+02 ;    C43 - C45    - O39
  2057  2060  2064   1   1.0956e+02   3.9246e+02 ;    C43 - C46    - H74
  2057  2060  2067   1   1.0797e+02   7.1379e+02 ;    C43 - C46    - O36
  2057  2060  2068   1   1.1151e+02   5.4308e+02 ;    C43 - C46    - C48
  2058  2059  2062   1   1.0956e+02   3.9246e+02 ;    C44 - C45    - H72
  2058  2059  2075   1   1.1019e+02   7.0793e+02 ;    C44 - C45    - O39
  2058  2061  2065   1   1.1022e+02   3.9079e+02 ;    C44 - C47    - H75
  2058  2061  2067   1   1.0797e+02   7.1379e+02 ;    C44 - C47    - O36
  2058  2061  2077   1   1.0797e+02   7.1379e+02 ;    C44 - C47    - O40
  2058  2073  2074   1   1.0726e+02   4.1003e+02 ;    C44 - O38    - H80
  2059  2057  2060   1   1.1151e+02   5.4308e+02 ;    C45 - C43    - C46
  2059  2057  2066   1   1.0956e+02   3.9246e+02 ;    C45 - C43    - H76
  2059  2058  2061   1   1.1151e+02   5.4308e+02 ;    C45 - C44    - C47
  2059  2058  2063   1   1.0956e+02   3.9246e+02 ;    C45 - C44    - H73
  2059  2058  2073   1   1.1019e+02   7.0793e+02 ;    C45 - C44    - O38
  2059  2075  2076   1   1.0726e+02   4.1003e+02 ;    C45 - O39    - H81
  2060  2057  2066   1   1.0956e+02   3.9246e+02 ;    C46 - C43    - H76
  2060  2067  2061   1   1.1248e+02   5.5480e+02 ;    C46 - O36    - C47
  2060  2068  2069   1   1.0956e+02   3.9246e+02 ;    C46 - C48    - H77
  2060  2068  2070   1   1.0956e+02   3.9246e+02 ;    C46 - C48    - H78
  2060  2068  2071   1   1.1019e+02   7.0793e+02 ;    C46 - C48    - O37
  2061  2058  2063   1   1.0956e+02   3.9246e+02 ;    C47 - C44    - H73
  2061  2058  2073   1   1.1019e+02   7.0793e+02 ;    C47 - C44    - O38
  2061  2077  2078   1   1.1248e+02   5.5480e+02 ;    C47 - O40    - C49
  2062  2059  2075   1   1.1026e+02   5.2300e+02 ;    H72 - C45    - O39
  2063  2058  2073   1   1.1026e+02   5.2300e+02 ;    H73 - C44    - O38
  2064  2060  2067   1   1.0978e+02   5.2216e+02 ;    H74 - C46    - O36
  2064  2060  2068   1   1.0956e+02   3.9246e+02 ;    H74 - C46    - C48
  2065  2061  2067   1   1.0958e+02   5.2216e+02 ;    H75 - C47    - O36
  2065  2061  2077   1   1.0958e+02   5.2216e+02 ;    H75 - C47    - O40
  2067  2060  2068   1   1.0797e+02   7.1379e+02 ;    O36 - C46    - C48
  2067  2061  2077   1   1.0829e+02   9.2801e+02 ;    O36 - C47    - O40
  2068  2071  2072   1   1.0726e+02   4.1003e+02 ;    C48 - O37    - H79
  2069  2068  2070   1   1.0846e+02   3.2468e+02 ;    H77 - C48    - H78
  2069  2068  2071   1   1.1026e+02   5.2300e+02 ;    H77 - C48    - O37
  2070  2068  2071   1   1.1026e+02   5.2300e+02 ;    H78 - C48    - O37
  2077  2078  2080   1   1.0797e+02   7.1379e+02 ;    O40 - C49    - C51
  2077  2078  2081   1   1.0797e+02   7.1379e+02 ;    O40 - C49    - C52
  2077  2078  2084   1   1.0978e+02   5.2216e+02 ;    O40 - C49    - H83
  2078  2080  2087   1   1.0956e+02   3.9246e+02 ;    C49 - C51    - H86
  2078  2080  2092   1   1.0797e+02   7.1379e+02 ;    C49 - C51    - O43
  2078  2080  2093   1   1.1151e+02   5.4308e+02 ;    C49 - C51    - C54
  2078  2081  2082   1   1.1151e+02   5.4308e+02 ;    C49 - C52    - C53
  2078  2081  2085   1   1.0956e+02   3.9246e+02 ;    C49 - C52    - H84
  2078  2081  2088   1   1.1019e+02   7.0793e+02 ;    C49 - C52    - O41
  2079  2082  2081   1   1.1151e+02   5.4308e+02 ;    C50 - C53    - C52
  2079  2082  2086   1   1.0956e+02   3.9246e+02 ;    C50 - C53    - H85
  2079  2082  2090   1   1.1019e+02   7.0793e+02 ;    C50 - C53    - O42
  2079  2092  2080   1   1.1248e+02   5.5480e+02 ;    C50 - O43    - C51
  2079  2098  2099   1   1.1248e+02   5.5480e+02 ;    C50 - O45    - C55
  2080  2078  2081   1   1.1151e+02   5.4308e+02 ;    C51 - C49    - C52
  2080  2078  2084   1   1.0956e+02   3.9246e+02 ;    C51 - C49    - H83
  2080  2093  2094   1   1.0956e+02   3.9246e+02 ;    C51 - C54    - H89
  2080  2093  2095   1   1.0956e+02   3.9246e+02 ;    C51 - C54    - H90
  2080  2093  2096   1   1.1019e+02   7.0793e+02 ;    C51 - C54    - O44
  2081  2078  2084   1   1.0956e+02   3.9246e+02 ;    C52 - C49    - H83
  2081  2082  2086   1   1.0956e+02   3.9246e+02 ;    C52 - C53    - H85
  2081  2082  2090   1   1.1019e+02   7.0793e+02 ;    C52 - C53    - O42
  2081  2088  2089   1   1.0726e+02   4.1003e+02 ;    C52 - O41    - H87
  2082  2079  2083   1   1.1022e+02   3.9079e+02 ;    C53 - C50    - H82
  2082  2079  2092   1   1.0797e+02   7.1379e+02 ;    C53 - C50    - O43
  2082  2079  2098   1   1.0797e+02   7.1379e+02 ;    C53 - C50    - O45
  2082  2081  2085   1   1.0956e+02   3.9246e+02 ;    C53 - C52    - H84
  2082  2081  2088   1   1.1019e+02   7.0793e+02 ;    C53 - C52    - O41
  2082  2090  2091   1   1.0726e+02   4.1003e+02 ;    C53 - O42    - H88
  2083  2079  2092   1   1.0958e+02   5.2216e+02 ;    H82 - C50    - O43
  2083  2079  2098   1   1.0958e+02   5.2216e+02 ;    H82 - C50    - O45
  2085  2081  2088   1   1.1026e+02   5.2300e+02 ;    H84 - C52    - O41
  2086  2082  2090   1   1.1026e+02   5.2300e+02 ;    H85 - C53    - O42
  2087  2080  2092   1   1.0978e+02   5.2216e+02 ;    H86 - C51    - O43
  2087  2080  2093   1   1.0956e+02   3.9246e+02 ;    H86 - C51    - C54
  2092  2079  2098   1   1.0829e+02   9.2801e+02 ;    O43 - C50    - O45
  2092  2080  2093   1   1.0797e+02   7.1379e+02 ;    O43 - C51    - C54
  2093  2096  2097   1   1.0726e+02   4.1003e+02 ;    C54 - O44    - H91
  2094  2093  2095   1   1.0846e+02   3.2468e+02 ;    H89 - C54    - H90
  2094  2093  2096   1   1.1026e+02   5.2300e+02 ;    H89 - C54    - O44
  2095  2093  2096   1   1.1026e+02   5.2300e+02 ;    H90 - C54    - O44
  2098  2099  2101   1   1.0797e+02   7.1379e+02 ;    O45 - C55    - C57
  2098  2099  2102   1   1.0797e+02   7.1379e+02 ;    O45 - C55    - C58
  2098  2099  2108   1   1.0978e+02   5.2216e+02 ;    O45 - C55    - H96
  2099  2101  2100   1   1.1151e+02   5.4308e+02 ;    C55 - C57    - C56
  2099  2101  2104   1   1.0956e+02   3.9246e+02 ;    C55 - C57    - H92
  2099  2101  2117   1   1.1019e+02   7.0793e+02 ;    C55 - C57    - O49
  2099  2102  2106   1   1.0956e+02   3.9246e+02 ;    C55 - C58    - H94
  2099  2102  2109   1   1.0797e+02   7.1379e+02 ;    C55 - C58    - O46
  2099  2102  2110   1   1.1151e+02   5.4308e+02 ;    C55 - C58    - C60
  2100  2101  2104   1   1.0956e+02   3.9246e+02 ;    C56 - C57    - H92
  2100  2101  2117   1   1.1019e+02   7.0793e+02 ;    C56 - C57    - O49
  2100  2103  2107   1   1.1022e+02   3.9079e+02 ;    C56 - C59    - H95
  2100  2103  2109   1   1.0797e+02   7.1379e+02 ;    C56 - C59    - O46
  2100  2103  2119   1   1.1019e+02   7.0793e+02 ;    C56 - C59    - O50
  2100  2115  2116   1   1.0726e+02   4.1003e+02 ;    C56 - O48    - H100
  2101  2099  2102   1   1.1151e+02   5.4308e+02 ;    C57 - C55    - C58
  2101  2099  2108   1   1.0956e+02   3.9246e+02 ;    C57 - C55    - H96
  2101  2100  2103   1   1.1151e+02   5.4308e+02 ;    C57 - C56    - C59
  2101  2100  2105   1   1.0956e+02   3.9246e+02 ;    C57 - C56    - H93
  2101  2100  2115   1   1.1019e+02   7.0793e+02 ;    C57 - C56    - O48
  2101  2117  2118   1   1.0726e+02   4.1003e+02 ;    C57 - O49    - H101
  2102  2099  2108   1   1.0956e+02   3.9246e+02 ;    C58 - C55    - H96
  2102  2109  2103   1   1.1248e+02   5.5480e+02 ;    C58 - O46    - C59
  2102  2110  2111   1   1.0956e+02   3.9246e+02 ;    C58 - C60    - H97
  2102  2110  2112   1   1.0956e+02   3.9246e+02 ;    C58 - C60    - H98
  2102  2110  2113   1   1.1019e+02   7.0793e+02 ;    C58 - C60    - O47
  2103  2100  2105   1   1.0956e+02   3.9246e+02 ;    C59 - C56    - H93
  2103  2100  2115   1   1.1019e+02   7.0793e+02 ;    C59 - C56    - O48
  2103  2119  2120   1   1.0726e+02   4.1003e+02 ;    C59 - O50    - H102
  2104  2101  2117   1   1.1026e+02   5.2300e+02 ;    H92 - C57    - O49
  2105  2100  2115   1   1.1026e+02   5.2300e+02 ;    H93 - C56    - O48
  2106  2102  2109   1   1.0978e+02   5.2216e+02 ;    H94 - C58    - O46
  2106  2102  2110   1   1.0956e+02   3.9246e+02 ;    H94 - C58    - C60
  2107  2103  2109   1   1.0958e+02   5.2216e+02 ;    H95 - C59    - O46
  2107  2103  2119   1   1.0943e+02   5.2551e+02 ;    H95 - C59    - O50
  2109  2102  2110   1   1.0797e+02   7.1379e+02 ;    O46 - C58    - C60
  2109  2103  2119   1   1.0938e+02   9.2634e+02 ;    O46 - C59    - O50
  2110  2113  2114   1   1.0726e+02   4.1003e+02 ;    C60 - O47    - H99
  2111  2110  2112   1   1.0846e+02   3.2468e+02 ;    H97 - C60    - H98
  2111  2110  2113   1   1.1026e+02   5.2300e+02 ;    H97 - C60    - O47
  2112  2110  2113   1   1.1026e+02   5.2300e+02 ;    H98 - C60    - O47

[ dihedrals ] ; propers
; for gromacs 4.5 or higher, using funct 9
;    i      j      k      l   func   phase     kd      pn

     1     2     4    11   9   0.00   0.65084   3 ;     H1-    C1-    C3-    H6
     1     2     4    16   9   0.00   0.00000   0 ;     H1-    C1-    C3-    O3
     1     2     4    16   9   0.00   1.04600   1 ;     H1-    C1-    C3-    O3
     1     2     4    17   9   0.00   0.33472   3 ;     H1-    C1-    C3-    C6
     1     2     5     6   9   0.00   0.33472   3 ;     H1-    C1-    C4-    C5
     1     2     5     9   9   0.00   0.65084   3 ;     H1-    C1-    C4-    H4
     1     2     5    12   9   0.00   0.75312   3 ;     H1-    C1-    C4-    O1
     1     2     5    12   9   0.00   2.13384   1 ;     H1-    C1-    C4-    O1
     2     4    16     3   9   0.00   0.00000   0 ;     C1-    C3-    O3-    C2
     2     4    16     3   9   0.00   0.66944   2 ;     C1-    C3-    O3-    C2
     2     4    16     3   9   0.00   1.00416   3 ;     C1-    C3-    O3-    C2
     2     4    17    18   9   0.00   0.65084   3 ;     C1-    C3-    C6-    H9
     2     4    17    19   9   0.00   0.65084   3 ;     C1-    C3-    C6-   H10
     2     4    17    20   9   0.00   0.87864   3 ;     C1-    C3-    C6-    O4
     2     5     6     3   9   0.00   0.46024   1 ;     C1-    C4-    C5-    C2
     2     5     6     3   9   0.00   0.54392   3 ;     C1-    C4-    C5-    C2
     2     5     6     3   9   180.00   1.21336   2 ;     C1-    C4-    C5-    C2
     2     5     6    10   9   0.00   0.65084   3 ;     C1-    C4-    C5-    H5
     2     5     6    14   9   0.00   0.87864   3 ;     C1-    C4-    C5-    O2
     2     5    12    13   9   0.00   0.00000   0 ;     C1-    C4-    O1-    H7
     3     6     5     9   9   0.00   0.65084   3 ;     C2-    C5-    C4-    H4
     3     6     5    12   9   0.00   0.87864   3 ;     C2-    C5-    C4-    O1
     3     6    14    15   9   0.00   0.00000   0 ;     C2-    C5-    O2-    H8
     3    16     4    11   9   0.00   1.41001   3 ;     C2-    O3-    C3-    H6
     3    16     4    17   9   0.00   0.00000   0 ;     C2-    O3-    C3-    C6
     3    16     4    17   9   0.00   0.66944   2 ;     C2-    O3-    C3-    C6
     3    16     4    17   9   0.00   1.00416   3 ;     C2-    O3-    C3-    C6
     3    22    23    25   9   0.00   0.00000   0 ;     C2-    O5-    C7-    C9
     3    22    23    25   9   0.00   0.66944   2 ;     C2-    O5-    C7-    C9
     3    22    23    25   9   0.00   1.00416   3 ;     C2-    O5-    C7-    C9
     3    22    23    26   9   0.00   0.00000   0 ;     C2-    O5-    C7-   C10
     3    22    23    26   9   0.00   0.66944   2 ;     C2-    O5-    C7-   C10
     3    22    23    26   9   0.00   1.00416   3 ;     C2-    O5-    C7-   C10
     3    22    23    32   9   0.00   1.41001   3 ;     C2-    O5-    C7-   H16
     4     2     5     6   9   0.00   0.46024   1 ;     C3-    C1-    C4-    C5
     4     2     5     6   9   0.00   0.54392   3 ;     C3-    C1-    C4-    C5
     4     2     5     6   9   180.00   1.21336   2 ;     C3-    C1-    C4-    C5
     4     2     5     9   9   0.00   0.65084   3 ;     C3-    C1-    C4-    H4
     4     2     5    12   9   0.00   0.87864   3 ;     C3-    C1-    C4-    O1
     4    16     3     6   9   0.00   0.00000   0 ;     C3-    O3-    C2-    C5
     4    16     3     6   9   0.00   0.66944   2 ;     C3-    O3-    C2-    C5
     4    16     3     6   9   0.00   1.00416   3 ;     C3-    O3-    C2-    C5
     4    16     3     7   9   0.00   1.60387   3 ;     C3-    O3-    C2-    H2
     4    16     3    22   9   0.00   5.18816   2 ;     C3-    O3-    C2-    O5
     4    16     3    22   9   180.00   0.00000   3 ;     C3-    O3-    C2-    O5
     4    16     3    22   9   180.00   4.05848   1 ;     C3-    O3-    C2-    O5
     4    17    20    21   9   0.00   0.00000   0 ;     C3-    C6-    O4-   H11
     5     2     4    11   9   0.00   0.65084   3 ;     C4-    C1-    C3-    H6
     5     2     4    16   9   0.00   0.65084   3 ;     C4-    C1-    C3-    O3
     5     2     4    17   9   0.00   0.46024   1 ;     C4-    C1-    C3-    C6
     5     2     4    17   9   0.00   0.54392   3 ;     C4-    C1-    C3-    C6
     5     2     4    17   9   180.00   1.21336   2 ;     C4-    C1-    C3-    C6
     5     6     3     7   9   0.00   0.65084   3 ;     C4-    C5-    C2-    H2
     5     6     3    16   9   0.00   0.65084   3 ;     C4-    C5-    C2-    O3
     5     6     3    22   9   0.00   0.65084   3 ;     C4-    C5-    C2-    O5
     5     6    14    15   9   0.00   0.00000   0 ;     C4-    C5-    O2-    H8
     6     3    22    23   9   0.00   0.00000   0 ;     C5-    C2-    O5-    C7
     6     3    22    23   9   0.00   0.66944   2 ;     C5-    C2-    O5-    C7
     6     3    22    23   9   0.00   1.00416   3 ;     C5-    C2-    O5-    C7
     6     5     2     8   9   0.00   0.33472   3 ;     C5-    C4-    C1-    H3
     6     5    12    13   9   0.00   0.00000   0 ;     C5-    C4-    O1-    H7
     7     3     6    10   9   0.00   0.65084   3 ;     H2-    C2-    C5-    H5
     7     3     6    14   9   0.00   0.65084   3 ;     H2-    C2-    C5-    O2
     7     3    22    23   9   0.00   1.60387   3 ;     H2-    C2-    O5-    C7
     8     2     4    11   9   0.00   0.65084   3 ;     H3-    C1-    C3-    H6
     8     2     4    16   9   0.00   0.00000   0 ;     H3-    C1-    C3-    O3
     8     2     4    16   9   0.00   1.04600   1 ;     H3-    C1-    C3-    O3
     8     2     4    17   9   0.00   0.33472   3 ;     H3-    C1-    C3-    C6
     8     2     5     9   9   0.00   0.65084   3 ;     H3-    C1-    C4-    H4
     8     2     5    12   9   0.00   0.75312   3 ;     H3-    C1-    C4-    O1
     8     2     5    12   9   0.00   2.13384   1 ;     H3-    C1-    C4-    O1
     9     5     6    10   9   0.00   0.65084   3 ;     H4-    C4-    C5-    H5
     9     5     6    14   9   0.00   0.00000   0 ;     H4-    C4-    C5-    O2
     9     5     6    14   9   0.00   1.04600   1 ;     H4-    C4-    C5-    O2
     9     5    12    13   9   0.00   0.47279   3 ;     H4-    C4-    O1-    H7
    10     6     3    16   9   0.00   0.00000   0 ;     H5-    C5-    C2-    O3
    10     6     3    16   9   0.00   1.04600   1 ;     H5-    C5-    C2-    O3
    10     6     3    22   9   0.00   0.00000   0 ;     H5-    C5-    C2-    O5
    10     6     3    22   9   0.00   1.04600   1 ;     H5-    C5-    C2-    O5
    10     6     5    12   9   0.00   0.00000   0 ;     H5-    C5-    C4-    O1
    10     6     5    12   9   0.00   1.04600   1 ;     H5-    C5-    C4-    O1
    10     6    14    15   9   0.00   0.47279   3 ;     H5-    C5-    O2-    H8
    11     4    17    18   9   0.00   0.65084   3 ;     H6-    C3-    C6-    H9
    11     4    17    19   9   0.00   0.65084   3 ;     H6-    C3-    C6-   H10
    11     4    17    20   9   0.00   0.00000   0 ;     H6-    C3-    C6-    O4
    11     4    17    20   9   0.00   1.04600   1 ;     H6-    C3-    C6-    O4
    12     5     6    14   9   0.00   3.76560   3 ;     O1-    C4-    C5-    O2
    12     5     6    14   9   0.00   4.72792   2 ;     O1-    C4-    C5-    O2
    14     6     3    16   9   0.00   0.00000   0 ;     O2-    C5-    C2-    O3
    14     6     3    16   9   0.00   4.22584   3 ;     O2-    C5-    C2-    O3
    14     6     3    16   9   180.00   0.08368   1 ;     O2-    C5-    C2-    O3
    14     6     3    22   9   0.00   0.00000   0 ;     O2-    C5-    C2-    O5
    14     6     3    22   9   0.00   4.22584   3 ;     O2-    C5-    C2-    O5
    14     6     3    22   9   180.00   0.08368   1 ;     O2-    C5-    C2-    O5
    16     3    22    23   9   0.00   5.18816   2 ;     O3-    C2-    O5-    C7
    16     3    22    23   9   180.00   0.00000   3 ;     O3-    C2-    O5-    C7
    16     3    22    23   9   180.00   4.05848   1 ;     O3-    C2-    O5-    C7
    16     4    17    18   9   0.00   0.00000   0 ;     O3-    C3-    C6-    H9
    16     4    17    18   9   0.00   1.04600   1 ;     O3-    C3-    C6-    H9
    16     4    17    19   9   0.00   0.00000   0 ;     O3-    C3-    C6-   H10
    16     4    17    19   9   0.00   1.04600   1 ;     O3-    C3-    C6-   H10
    16     4    17    20   9   0.00   0.00000   0 ;     O3-    C3-    C6-    O4
    16     4    17    20   9   0.00   4.22584   3 ;     O3-    C3-    C6-    O4
    16     4    17    20   9   180.00   0.08368   1 ;     O3-    C3-    C6-    O4
    18    17    20    21   9   0.00   0.47279   3 ;     H9-    C6-    O4-   H11
    19    17    20    21   9   0.00   0.47279   3 ;    H10-    C6-    O4-   H11
    22    23    25    24   9   0.00   0.65084   3 ;     O5-    C7-    C9-    C8
    22    23    25    28   9   0.00   0.00000   0 ;     O5-    C7-    C9-   H12
    22    23    25    28   9   0.00   1.04600   1 ;     O5-    C7-    C9-   H12
    22    23    25    41   9   0.00   0.00000   0 ;     O5-    C7-    C9-    O9
    22    23    25    41   9   0.00   4.22584   3 ;     O5-    C7-    C9-    O9
    22    23    25    41   9   180.00   0.08368   1 ;     O5-    C7-    C9-    O9
    22    23    26    30   9   0.00   0.00000   0 ;     O5-    C7-   C10-   H14
    22    23    26    30   9   0.00   1.04600   1 ;     O5-    C7-   C10-   H14
    22    23    26    33   9   0.00   0.00000   0 ;     O5-    C7-   C10-    O6
    22    23    26    33   9   180.00   0.00000   2 ;     O5-    C7-   C10-    O6
    22    23    26    33   9   180.00   0.71128   1 ;     O5-    C7-   C10-    O6
    22    23    26    34   9   0.00   0.65084   3 ;     O5-    C7-   C10-   C12
    23    25    24    27   9   0.00   0.46024   1 ;     C7-    C9-    C8-   C11
    23    25    24    27   9   0.00   0.54392   3 ;     C7-    C9-    C8-   C11
    23    25    24    27   9   180.00   1.21336   2 ;     C7-    C9-    C8-   C11
    23    25    24    29   9   0.00   0.65084   3 ;     C7-    C9-    C8-   H13
    23    25    24    39   9   0.00   0.87864   3 ;     C7-    C9-    C8-    O8
    23    25    41    42   9   0.00   0.00000   0 ;     C7-    C9-    O9-   H21
    23    26    33    27   9   0.00   0.00000   0 ;     C7-   C10-    O6-   C11
    23    26    33    27   9   0.00   0.66944   2 ;     C7-   C10-    O6-   C11
    23    26    33    27   9   0.00   1.00416   3 ;     C7-   C10-    O6-   C11
    23    26    34    35   9   0.00   0.65084   3 ;     C7-   C10-   C12-   H17
    23    26    34    36   9   0.00   0.65084   3 ;     C7-   C10-   C12-   H18
    23    26    34    37   9   0.00   0.87864   3 ;     C7-   C10-   C12-    O7
    24    25    23    26   9   0.00   0.46024   1 ;     C8-    C9-    C7-   C10
    24    25    23    26   9   0.00   0.54392   3 ;     C8-    C9-    C7-   C10
    24    25    23    26   9   180.00   1.21336   2 ;     C8-    C9-    C7-   C10
    24    25    23    32   9   0.00   0.65084   3 ;     C8-    C9-    C7-   H16
    24    25    41    42   9   0.00   0.00000   0 ;     C8-    C9-    O9-   H21
    24    27    33    26   9   0.00   0.00000   0 ;     C8-   C11-    O6-   C10
    24    27    33    26   9   0.00   0.66944   2 ;     C8-   C11-    O6-   C10
    24    27    33    26   9   0.00   1.00416   3 ;     C8-   C11-    O6-   C10
    24    27    43    44   9   0.00   0.00000   0 ;     C8-   C11-   O10-   C13
    24    27    43    44   9   0.00   0.66944   2 ;     C8-   C11-   O10-   C13
    24    27    43    44   9   0.00   1.00416   3 ;     C8-   C11-   O10-   C13
    25    23    26    30   9   0.00   0.65084   3 ;     C9-    C7-   C10-   H14
    25    23    26    33   9   0.00   0.65084   3 ;     C9-    C7-   C10-    O6
    25    23    26    34   9   0.00   0.46024   1 ;     C9-    C7-   C10-   C12
    25    23    26    34   9   0.00   0.54392   3 ;     C9-    C7-   C10-   C12
    25    23    26    34   9   180.00   1.21336   2 ;     C9-    C7-   C10-   C12
    25    24    27    31   9   0.00   0.65084   3 ;     C9-    C8-   C11-   H15
    25    24    27    33   9   0.00   0.65084   3 ;     C9-    C8-   C11-    O6
    25    24    27    43   9   0.00   0.65084   3 ;     C9-    C8-   C11-   O10
    25    24    39    40   9   0.00   0.00000   0 ;     C9-    C8-    O8-   H20
    26    23    25    28   9   0.00   0.65084   3 ;    C10-    C7-    C9-   H12
    26    23    25    41   9   0.00   0.87864   3 ;    C10-    C7-    C9-    O9
    26    33    27    31   9   0.00   1.60387   3 ;    C10-    O6-   C11-   H15
    26    33    27    43   9   0.00   5.18816   2 ;    C10-    O6-   C11-   O10
    26    33    27    43   9   180.00   0.00000   3 ;    C10-    O6-   C11-   O10
    26    33    27    43   9   180.00   4.05848   1 ;    C10-    O6-   C11-   O10
    26    34    37    38   9   0.00   0.00000   0 ;    C10-   C12-    O7-   H19
    27    24    25    28   9   0.00   0.65084   3 ;    C11-    C8-    C9-   H12
    27    24    25    41   9   0.00   0.87864   3 ;    C11-    C8-    C9-    O9
    27    24    39    40   9   0.00   0.00000   0 ;    C11-    C8-    O8-   H20
    27    33    26    30   9   0.00   1.41001   3 ;    C11-    O6-   C10-   H14
    27    33    26    34   9   0.00   0.00000   0 ;    C11-    O6-   C10-   C12
    27    33    26    34   9   0.00   0.66944   2 ;    C11-    O6-   C10-   C12
    27    33    26    34   9   0.00   1.00416   3 ;    C11-    O6-   C10-   C12
    27    43    44    46   9   0.00   0.00000   0 ;    C11-   O10-   C13-   C15
    27    43    44    46   9   0.00   0.66944   2 ;    C11-   O10-   C13-   C15
    27    43    44    46   9   0.00   1.00416   3 ;    C11-   O10-   C13-   C15
    27    43    44    47   9   0.00   0.00000   0 ;    C11-   O10-   C13-   C16
    27    43    44    47   9   0.00   0.66944   2 ;    C11-   O10-   C13-   C16
    27    43    44    47   9   0.00   1.00416   3 ;    C11-   O10-   C13-   C16
    27    43    44    50   9   0.00   1.41001   3 ;    C11-   O10-   C13-   H23
    28    25    23    32   9   0.00   0.65084   3 ;    H12-    C9-    C7-   H16
    28    25    24    29   9   0.00   0.65084   3 ;    H12-    C9-    C8-   H13
    28    25    24    39   9   0.00   0.00000   0 ;    H12-    C9-    C8-    O8
    28    25    24    39   9   0.00   1.04600   1 ;    H12-    C9-    C8-    O8
    28    25    41    42   9   0.00   0.47279   3 ;    H12-    C9-    O9-   H21
    29    24    25    41   9   0.00   0.00000   0 ;    H13-    C8-    C9-    O9
    29    24    25    41   9   0.00   1.04600   1 ;    H13-    C8-    C9-    O9
    29    24    27    31   9   0.00   0.65084   3 ;    H13-    C8-   C11-   H15
    29    24    27    33   9   0.00   0.00000   0 ;    H13-    C8-   C11-    O6
    29    24    27    33   9   0.00   1.04600   1 ;    H13-    C8-   C11-    O6
    29    24    27    43   9   0.00   0.00000   0 ;    H13-    C8-   C11-   O10
    29    24    27    43   9   0.00   1.04600   1 ;    H13-    C8-   C11-   O10
    29    24    39    40   9   0.00   0.47279   3 ;    H13-    C8-    O8-   H20
    30    26    23    32   9   0.00   0.65084   3 ;    H14-   C10-    C7-   H16
    30    26    34    35   9   0.00   0.65084   3 ;    H14-   C10-   C12-   H17
    30    26    34    36   9   0.00   0.65084   3 ;    H14-   C10-   C12-   H18
    30    26    34    37   9   0.00   0.00000   0 ;    H14-   C10-   C12-    O7
    30    26    34    37   9   0.00   1.04600   1 ;    H14-   C10-   C12-    O7
    31    27    24    39   9   0.00   0.65084   3 ;    H15-   C11-    C8-    O8
    31    27    43    44   9   0.00   1.60387   3 ;    H15-   C11-   O10-   C13
    32    23    25    41   9   0.00   0.00000   0 ;    H16-    C7-    C9-    O9
    32    23    25    41   9   0.00   1.04600   1 ;    H16-    C7-    C9-    O9
    32    23    26    33   9   0.00   0.00000   0 ;    H16-    C7-   C10-    O6
    32    23    26    33   9   0.00   1.04600   1 ;    H16-    C7-   C10-    O6
    32    23    26    34   9   0.00   0.65084   3 ;    H16-    C7-   C10-   C12
    33    26    34    35   9   0.00   0.00000   0 ;     O6-   C10-   C12-   H17
    33    26    34    35   9   0.00   1.04600   1 ;     O6-   C10-   C12-   H17
    33    26    34    36   9   0.00   0.00000   0 ;     O6-   C10-   C12-   H18
    33    26    34    36   9   0.00   1.04600   1 ;     O6-   C10-   C12-   H18
    33    26    34    37   9   0.00   0.00000   0 ;     O6-   C10-   C12-    O7
    33    26    34    37   9   0.00   4.22584   3 ;     O6-   C10-   C12-    O7
    33    26    34    37   9   180.00   0.08368   1 ;     O6-   C10-   C12-    O7
    33    27    24    39   9   0.00   0.00000   0 ;     O6-   C11-    C8-    O8
    33    27    24    39   9   0.00   4.22584   3 ;     O6-   C11-    C8-    O8
    33    27    24    39   9   180.00   0.08368   1 ;     O6-   C11-    C8-    O8
    33    27    43    44   9   0.00   5.18816   2 ;     O6-   C11-   O10-   C13
    33    27    43    44   9   180.00   0.00000   3 ;     O6-   C11-   O10-   C13
    33    27    43    44   9   180.00   4.05848   1 ;     O6-   C11-   O10-   C13
    35    34    37    38   9   0.00   0.47279   3 ;    H17-   C12-    O7-   H19
    36    34    37    38   9   0.00   0.47279   3 ;    H18-   C12-    O7-   H19
    39    24    25    41   9   0.00   3.76560   3 ;     O8-    C8-    C9-    O9
    39    24    25    41   9   0.00   4.72792   2 ;     O8-    C8-    C9-    O9
    39    24    27    43   9   0.00   0.00000   0 ;     O8-    C8-   C11-   O10
    39    24    27    43   9   0.00   4.22584   3 ;     O8-    C8-   C11-   O10
    39    24    27    43   9   180.00   0.08368   1 ;     O8-    C8-   C11-   O10
    43    44    46    53   9   0.00   0.00000   0 ;    O10-   C13-   C15-   H26
    43    44    46    53   9   0.00   1.04600   1 ;    O10-   C13-   C15-   H26
    43    44    46    58   9   0.00   0.00000   0 ;    O10-   C13-   C15-   O13
    43    44    46    58   9   180.00   0.00000   2 ;    O10-   C13-   C15-   O13
    43    44    46    58   9   180.00   0.71128   1 ;    O10-   C13-   C15-   O13
    43    44    46    59   9   0.00   0.65084   3 ;    O10-   C13-   C15-   C18
    43    44    47    48   9   0.00   0.65084   3 ;    O10-   C13-   C16-   C17
    43    44    47    51   9   0.00   0.00000   0 ;    O10-   C13-   C16-   H24
    43    44    47    51   9   0.00   1.04600   1 ;    O10-   C13-   C16-   H24
    43    44    47    54   9   0.00   0.00000   0 ;    O10-   C13-   C16-   O11
    43    44    47    54   9   0.00   4.22584   3 ;    O10-   C13-   C16-   O11
    43    44    47    54   9   180.00   0.08368   1 ;    O10-   C13-   C16-   O11
    44    46    58    45   9   0.00   0.00000   0 ;    C13-   C15-   O13-   C14
    44    46    58    45   9   0.00   0.66944   2 ;    C13-   C15-   O13-   C14
    44    46    58    45   9   0.00   1.00416   3 ;    C13-   C15-   O13-   C14
    44    46    59    60   9   0.00   0.65084   3 ;    C13-   C15-   C18-   H29
    44    46    59    61   9   0.00   0.65084   3 ;    C13-   C15-   C18-   H30
    44    46    59    62   9   0.00   0.87864   3 ;    C13-   C15-   C18-   O14
    44    47    48    45   9   0.00   0.46024   1 ;    C13-   C16-   C17-   C14
    44    47    48    45   9   0.00   0.54392   3 ;    C13-   C16-   C17-   C14
    44    47    48    45   9   180.00   1.21336   2 ;    C13-   C16-   C17-   C14
    44    47    48    52   9   0.00   0.65084   3 ;    C13-   C16-   C17-   H25
    44    47    48    56   9   0.00   0.87864   3 ;    C13-   C16-   C17-   O12
    44    47    54    55   9   0.00   0.00000   0 ;    C13-   C16-   O11-   H27
    45    48    47    51   9   0.00   0.65084   3 ;    C14-   C17-   C16-   H24
    45    48    47    54   9   0.00   0.87864   3 ;    C14-   C17-   C16-   O11
    45    48    56    57   9   0.00   0.00000   0 ;    C14-   C17-   O12-   H28
    45    58    46    53   9   0.00   1.41001   3 ;    C14-   O13-   C15-   H26
    45    58    46    59   9   0.00   0.00000   0 ;    C14-   O13-   C15-   C18
    45    58    46    59   9   0.00   0.66944   2 ;    C14-   O13-   C15-   C18
    45    58    46    59   9   0.00   1.00416   3 ;    C14-   O13-   C15-   C18
    45    64    65    67   9   0.00   0.00000   0 ;    C14-   O15-   C19-   C21
    45    64    65    67   9   0.00   0.66944   2 ;    C14-   O15-   C19-   C21
    45    64    65    67   9   0.00   1.00416   3 ;    C14-   O15-   C19-   C21
    45    64    65    68   9   0.00   0.00000   0 ;    C14-   O15-   C19-   C22
    45    64    65    68   9   0.00   0.66944   2 ;    C14-   O15-   C19-   C22
    45    64    65    68   9   0.00   1.00416   3 ;    C14-   O15-   C19-   C22
    45    64    65    74   9   0.00   1.41001   3 ;    C14-   O15-   C19-   H36
    46    44    47    48   9   0.00   0.46024   1 ;    C15-   C13-   C16-   C17
    46    44    47    48   9   0.00   0.54392   3 ;    C15-   C13-   C16-   C17
    46    44    47    48   9   180.00   1.21336   2 ;    C15-   C13-   C16-   C17
    46    44    47    51   9   0.00   0.65084   3 ;    C15-   C13-   C16-   H24
    46    44    47    54   9   0.00   0.87864   3 ;    C15-   C13-   C16-   O11
    46    58    45    48   9   0.00   0.00000   0 ;    C15-   O13-   C14-   C17
    46    58    45    48   9   0.00   0.66944   2 ;    C15-   O13-   C14-   C17
    46    58    45    48   9   0.00   1.00416   3 ;    C15-   O13-   C14-   C17
    46    58    45    49   9   0.00   1.60387   3 ;    C15-   O13-   C14-   H22
    46    58    45    64   9   0.00   5.18816   2 ;    C15-   O13-   C14-   O15
    46    58    45    64   9   180.00   0.00000   3 ;    C15-   O13-   C14-   O15
    46    58    45    64   9   180.00   4.05848   1 ;    C15-   O13-   C14-   O15
    46    59    62    63   9   0.00   0.00000   0 ;    C15-   C18-   O14-   H31
    47    44    46    53   9   0.00   0.65084   3 ;    C16-   C13-   C15-   H26
    47    44    46    58   9   0.00   0.65084   3 ;    C16-   C13-   C15-   O13
    47    44    46    59   9   0.00   0.46024   1 ;    C16-   C13-   C15-   C18
    47    44    46    59   9   0.00   0.54392   3 ;    C16-   C13-   C15-   C18
    47    44    46    59   9   180.00   1.21336   2 ;    C16-   C13-   C15-   C18
    47    48    45    49   9   0.00   0.65084   3 ;    C16-   C17-   C14-   H22
    47    48    45    58   9   0.00   0.65084   3 ;    C16-   C17-   C14-   O13
    47    48    45    64   9   0.00   0.65084   3 ;    C16-   C17-   C14-   O15
    47    48    56    57   9   0.00   0.00000   0 ;    C16-   C17-   O12-   H28
    48    45    64    65   9   0.00   0.00000   0 ;    C17-   C14-   O15-   C19
    48    45    64    65   9   0.00   0.66944   2 ;    C17-   C14-   O15-   C19
    48    45    64    65   9   0.00   1.00416   3 ;    C17-   C14-   O15-   C19
    48    47    44    50   9   0.00   0.65084   3 ;    C17-   C16-   C13-   H23
    48    47    54    55   9   0.00   0.00000   0 ;    C17-   C16-   O11-   H27
    49    45    48    52   9   0.00   0.65084   3 ;    H22-   C14-   C17-   H25
    49    45    48    56   9   0.00   0.65084   3 ;    H22-   C14-   C17-   O12
    49    45    64    65   9   0.00   1.60387   3 ;    H22-   C14-   O15-   C19
    50    44    46    53   9   0.00   0.65084   3 ;    H23-   C13-   C15-   H26
    50    44    46    58   9   0.00   0.00000   0 ;    H23-   C13-   C15-   O13
    50    44    46    58   9   0.00   1.04600   1 ;    H23-   C13-   C15-   O13
    50    44    46    59   9   0.00   0.65084   3 ;    H23-   C13-   C15-   C18
    50    44    47    51   9   0.00   0.65084   3 ;    H23-   C13-   C16-   H24
    50    44    47    54   9   0.00   0.00000   0 ;    H23-   C13-   C16-   O11
    50    44    47    54   9   0.00   1.04600   1 ;    H23-   C13-   C16-   O11
    51    47    48    52   9   0.00   0.65084   3 ;    H24-   C16-   C17-   H25
    51    47    48    56   9   0.00   0.00000   0 ;    H24-   C16-   C17-   O12
    51    47    48    56   9   0.00   1.04600   1 ;    H24-   C16-   C17-   O12
    51    47    54    55   9   0.00   0.47279   3 ;    H24-   C16-   O11-   H27
    52    48    45    58   9   0.00   0.00000   0 ;    H25-   C17-   C14-   O13
    52    48    45    58   9   0.00   1.04600   1 ;    H25-   C17-   C14-   O13
    52    48    45    64   9   0.00   0.00000   0 ;    H25-   C17-   C14-   O15
    52    48    45    64   9   0.00   1.04600   1 ;    H25-   C17-   C14-   O15
    52    48    47    54   9   0.00   0.00000   0 ;    H25-   C17-   C16-   O11
    52    48    47    54   9   0.00   1.04600   1 ;    H25-   C17-   C16-   O11
    52    48    56    57   9   0.00   0.47279   3 ;    H25-   C17-   O12-   H28
    53    46    59    60   9   0.00   0.65084   3 ;    H26-   C15-   C18-   H29
    53    46    59    61   9   0.00   0.65084   3 ;    H26-   C15-   C18-   H30
    53    46    59    62   9   0.00   0.00000   0 ;    H26-   C15-   C18-   O14
    53    46    59    62   9   0.00   1.04600   1 ;    H26-   C15-   C18-   O14
    54    47    48    56   9   0.00   3.76560   3 ;    O11-   C16-   C17-   O12
    54    47    48    56   9   0.00   4.72792   2 ;    O11-   C16-   C17-   O12
    56    48    45    58   9   0.00   0.00000   0 ;    O12-   C17-   C14-   O13
    56    48    45    58   9   0.00   4.22584   3 ;    O12-   C17-   C14-   O13
    56    48    45    58   9   180.00   0.08368   1 ;    O12-   C17-   C14-   O13
    56    48    45    64   9   0.00   0.00000   0 ;    O12-   C17-   C14-   O15
    56    48    45    64   9   0.00   4.22584   3 ;    O12-   C17-   C14-   O15
    56    48    45    64   9   180.00   0.08368   1 ;    O12-   C17-   C14-   O15
    58    45    64    65   9   0.00   5.18816   2 ;    O13-   C14-   O15-   C19
    58    45    64    65   9   180.00   0.00000   3 ;    O13-   C14-   O15-   C19
    58    45    64    65   9   180.00   4.05848   1 ;    O13-   C14-   O15-   C19
    58    46    59    60   9   0.00   0.00000   0 ;    O13-   C15-   C18-   H29
    58    46    59    60   9   0.00   1.04600   1 ;    O13-   C15-   C18-   H29
    58    46    59    61   9   0.00   0.00000   0 ;    O13-   C15-   C18-   H30
    58    46    59    61   9   0.00   1.04600   1 ;    O13-   C15-   C18-   H30
    58    46    59    62   9   0.00   0.00000   0 ;    O13-   C15-   C18-   O14
    58    46    59    62   9   0.00   4.22584   3 ;    O13-   C15-   C18-   O14
    58    46    59    62   9   180.00   0.08368   1 ;    O13-   C15-   C18-   O14
    60    59    62    63   9   0.00   0.47279   3 ;    H29-   C18-   O14-   H31
    61    59    62    63   9   0.00   0.47279   3 ;    H30-   C18-   O14-   H31
    64    65    67    66   9   0.00   0.65084   3 ;    O15-   C19-   C21-   C20
    64    65    67    70   9   0.00   0.00000   0 ;    O15-   C19-   C21-   H32
    64    65    67    70   9   0.00   1.04600   1 ;    O15-   C19-   C21-   H32
    64    65    67    83   9   0.00   0.00000   0 ;    O15-   C19-   C21-   O19
    64    65    67    83   9   0.00   4.22584   3 ;    O15-   C19-   C21-   O19
    64    65    67    83   9   180.00   0.08368   1 ;    O15-   C19-   C21-   O19
    64    65    68    72   9   0.00   0.00000   0 ;    O15-   C19-   C22-   H34
    64    65    68    72   9   0.00   1.04600   1 ;    O15-   C19-   C22-   H34
    64    65    68    75   9   0.00   0.00000   0 ;    O15-   C19-   C22-   O16
    64    65    68    75   9   180.00   0.00000   2 ;    O15-   C19-   C22-   O16
    64    65    68    75   9   180.00   0.71128   1 ;    O15-   C19-   C22-   O16
    64    65    68    76   9   0.00   0.65084   3 ;    O15-   C19-   C22-   C24
    65    67    66    69   9   0.00   0.46024   1 ;    C19-   C21-   C20-   C23
    65    67    66    69   9   0.00   0.54392   3 ;    C19-   C21-   C20-   C23
    65    67    66    69   9   180.00   1.21336   2 ;    C19-   C21-   C20-   C23
    65    67    66    71   9   0.00   0.65084   3 ;    C19-   C21-   C20-   H33
    65    67    66    81   9   0.00   0.87864   3 ;    C19-   C21-   C20-   O18
    65    67    83    84   9   0.00   0.00000   0 ;    C19-   C21-   O19-   H41
    65    68    75    69   9   0.00   0.00000   0 ;    C19-   C22-   O16-   C23
    65    68    75    69   9   0.00   0.66944   2 ;    C19-   C22-   O16-   C23
    65    68    75    69   9   0.00   1.00416   3 ;    C19-   C22-   O16-   C23
    65    68    76    77   9   0.00   0.65084   3 ;    C19-   C22-   C24-   H37
    65    68    76    78   9   0.00   0.65084   3 ;    C19-   C22-   C24-   H38
    65    68    76    79   9   0.00   0.87864   3 ;    C19-   C22-   C24-   O17
    66    67    65    68   9   0.00   0.46024   1 ;    C20-   C21-   C19-   C22
    66    67    65    68   9   0.00   0.54392   3 ;    C20-   C21-   C19-   C22
    66    67    65    68   9   180.00   1.21336   2 ;    C20-   C21-   C19-   C22
    66    67    65    74   9   0.00   0.65084   3 ;    C20-   C21-   C19-   H36
    66    67    83    84   9   0.00   0.00000   0 ;    C20-   C21-   O19-   H41
    66    69    75    68   9   0.00   0.00000   0 ;    C20-   C23-   O16-   C22
    66    69    75    68   9   0.00   0.66944   2 ;    C20-   C23-   O16-   C22
    66    69    75    68   9   0.00   1.00416   3 ;    C20-   C23-   O16-   C22
    66    69    85    86   9   0.00   0.00000   0 ;    C20-   C23-   O20-   C25
    66    69    85    86   9   0.00   0.66944   2 ;    C20-   C23-   O20-   C25
    66    69    85    86   9   0.00   1.00416   3 ;    C20-   C23-   O20-   C25
    67    65    68    72   9   0.00   0.65084   3 ;    C21-   C19-   C22-   H34
    67    65    68    75   9   0.00   0.65084   3 ;    C21-   C19-   C22-   O16
    67    65    68    76   9   0.00   0.46024   1 ;    C21-   C19-   C22-   C24
    67    65    68    76   9   0.00   0.54392   3 ;    C21-   C19-   C22-   C24
    67    65    68    76   9   180.00   1.21336   2 ;    C21-   C19-   C22-   C24
    67    66    69    73   9   0.00   0.65084   3 ;    C21-   C20-   C23-   H35
    67    66    69    75   9   0.00   0.65084   3 ;    C21-   C20-   C23-   O16
    67    66    69    85   9   0.00   0.65084   3 ;    C21-   C20-   C23-   O20
    67    66    81    82   9   0.00   0.00000   0 ;    C21-   C20-   O18-   H40
    68    65    67    70   9   0.00   0.65084   3 ;    C22-   C19-   C21-   H32
    68    65    67    83   9   0.00   0.87864   3 ;    C22-   C19-   C21-   O19
    68    75    69    73   9   0.00   1.60387   3 ;    C22-   O16-   C23-   H35
    68    75    69    85   9   0.00   5.18816   2 ;    C22-   O16-   C23-   O20
    68    75    69    85   9   180.00   0.00000   3 ;    C22-   O16-   C23-   O20
    68    75    69    85   9   180.00   4.05848   1 ;    C22-   O16-   C23-   O20
    68    76    79    80   9   0.00   0.00000   0 ;    C22-   C24-   O17-   H39
    69    66    67    70   9   0.00   0.65084   3 ;    C23-   C20-   C21-   H32
    69    66    67    83   9   0.00   0.87864   3 ;    C23-   C20-   C21-   O19
    69    66    81    82   9   0.00   0.00000   0 ;    C23-   C20-   O18-   H40
    69    75    68    72   9   0.00   1.41001   3 ;    C23-   O16-   C22-   H34
    69    75    68    76   9   0.00   0.00000   0 ;    C23-   O16-   C22-   C24
    69    75    68    76   9   0.00   0.66944   2 ;    C23-   O16-   C22-   C24
    69    75    68    76   9   0.00   1.00416   3 ;    C23-   O16-   C22-   C24
    69    85    86    88   9   0.00   0.00000   0 ;    C23-   O20-   C25-   C27
    69    85    86    88   9   0.00   0.66944   2 ;    C23-   O20-   C25-   C27
    69    85    86    88   9   0.00   1.00416   3 ;    C23-   O20-   C25-   C27
    69    85    86    89   9   0.00   0.00000   0 ;    C23-   O20-   C25-   C28
    69    85    86    89   9   0.00   0.66944   2 ;    C23-   O20-   C25-   C28
    69    85    86    89   9   0.00   1.00416   3 ;    C23-   O20-   C25-   C28
    69    85    86    92   9   0.00   1.41001   3 ;    C23-   O20-   C25-   H43
    70    67    65    74   9   0.00   0.65084   3 ;    H32-   C21-   C19-   H36
    70    67    66    71   9   0.00   0.65084   3 ;    H32-   C21-   C20-   H33
    70    67    66    81   9   0.00   0.00000   0 ;    H32-   C21-   C20-   O18
    70    67    66    81   9   0.00   1.04600   1 ;    H32-   C21-   C20-   O18
    70    67    83    84   9   0.00   0.47279   3 ;    H32-   C21-   O19-   H41
    71    66    67    83   9   0.00   0.00000   0 ;    H33-   C20-   C21-   O19
    71    66    67    83   9   0.00   1.04600   1 ;    H33-   C20-   C21-   O19
    71    66    69    73   9   0.00   0.65084   3 ;    H33-   C20-   C23-   H35
    71    66    69    75   9   0.00   0.00000   0 ;    H33-   C20-   C23-   O16
    71    66    69    75   9   0.00   1.04600   1 ;    H33-   C20-   C23-   O16
    71    66    69    85   9   0.00   0.00000   0 ;    H33-   C20-   C23-   O20
    71    66    69    85   9   0.00   1.04600   1 ;    H33-   C20-   C23-   O20
    71    66    81    82   9   0.00   0.47279   3 ;    H33-   C20-   O18-   H40
    72    68    65    74   9   0.00   0.65084   3 ;    H34-   C22-   C19-   H36
    72    68    76    77   9   0.00   0.65084   3 ;    H34-   C22-   C24-   H37
    72    68    76    78   9   0.00   0.65084   3 ;    H34-   C22-   C24-   H38
    72    68    76    79   9   0.00   0.00000   0 ;    H34-   C22-   C24-   O17
    72    68    76    79   9   0.00   1.04600   1 ;    H34-   C22-   C24-   O17
    73    69    66    81   9   0.00   0.65084   3 ;    H35-   C23-   C20-   O18
    73    69    85    86   9   0.00   1.60387   3 ;    H35-   C23-   O20-   C25
    74    65    67    83   9   0.00   0.00000   0 ;    H36-   C19-   C21-   O19
    74    65    67    83   9   0.00   1.04600   1 ;    H36-   C19-   C21-   O19
    74    65    68    75   9   0.00   0.00000   0 ;    H36-   C19-   C22-   O16
    74    65    68    75   9   0.00   1.04600   1 ;    H36-   C19-   C22-   O16
    74    65    68    76   9   0.00   0.65084   3 ;    H36-   C19-   C22-   C24
    75    68    76    77   9   0.00   0.00000   0 ;    O16-   C22-   C24-   H37
    75    68    76    77   9   0.00   1.04600   1 ;    O16-   C22-   C24-   H37
    75    68    76    78   9   0.00   0.00000   0 ;    O16-   C22-   C24-   H38
    75    68    76    78   9   0.00   1.04600   1 ;    O16-   C22-   C24-   H38
    75    68    76    79   9   0.00   0.00000   0 ;    O16-   C22-   C24-   O17
    75    68    76    79   9   0.00   4.22584   3 ;    O16-   C22-   C24-   O17
    75    68    76    79   9   180.00   0.08368   1 ;    O16-   C22-   C24-   O17
    75    69    66    81   9   0.00   0.00000   0 ;    O16-   C23-   C20-   O18
    75    69    66    81   9   0.00   4.22584   3 ;    O16-   C23-   C20-   O18
    75    69    66    81   9   180.00   0.08368   1 ;    O16-   C23-   C20-   O18
    75    69    85    86   9   0.00   5.18816   2 ;    O16-   C23-   O20-   C25
    75    69    85    86   9   180.00   0.00000   3 ;    O16-   C23-   O20-   C25
    75    69    85    86   9   180.00   4.05848   1 ;    O16-   C23-   O20-   C25
    77    76    79    80   9   0.00   0.47279   3 ;    H37-   C24-   O17-   H39
    78    76    79    80   9   0.00   0.47279   3 ;    H38-   C24-   O17-   H39
    81    66    67    83   9   0.00   3.76560   3 ;    O18-   C20-   C21-   O19
    81    66    67    83   9   0.00   4.72792   2 ;    O18-   C20-   C21-   O19
    81    66    69    85   9   0.00   0.00000   0 ;    O18-   C20-   C23-   O20
    81    66    69    85   9   0.00   4.22584   3 ;    O18-   C20-   C23-   O20
    81    66    69    85   9   180.00   0.08368   1 ;    O18-   C20-   C23-   O20
    85    86    88    95   9   0.00   0.00000   0 ;    O20-   C25-   C27-   H46
    85    86    88    95   9   0.00   1.04600   1 ;    O20-   C25-   C27-   H46
    85    86    88   100   9   0.00   0.00000   0 ;    O20-   C25-   C27-   O23
    85    86    88   100   9   180.00   0.00000   2 ;    O20-   C25-   C27-   O23
    85    86    88   100   9   180.00   0.71128   1 ;    O20-   C25-   C27-   O23
    85    86    88   101   9   0.00   0.65084   3 ;    O20-   C25-   C27-   C30
    85    86    89    90   9   0.00   0.65084   3 ;    O20-   C25-   C28-   C29
    85    86    89    93   9   0.00   0.00000   0 ;    O20-   C25-   C28-   H44
    85    86    89    93   9   0.00   1.04600   1 ;    O20-   C25-   C28-   H44
    85    86    89    96   9   0.00   0.00000   0 ;    O20-   C25-   C28-   O21
    85    86    89    96   9   0.00   4.22584   3 ;    O20-   C25-   C28-   O21
    85    86    89    96   9   180.00   0.08368   1 ;    O20-   C25-   C28-   O21
    86    88   100    87   9   0.00   0.00000   0 ;    C25-   C27-   O23-   C26
    86    88   100    87   9   0.00   0.66944   2 ;    C25-   C27-   O23-   C26
    86    88   100    87   9   0.00   1.00416   3 ;    C25-   C27-   O23-   C26
    86    88   101   102   9   0.00   0.65084   3 ;    C25-   C27-   C30-   H49
    86    88   101   103   9   0.00   0.65084   3 ;    C25-   C27-   C30-   H50
    86    88   101   104   9   0.00   0.87864   3 ;    C25-   C27-   C30-   O24
    86    89    90    87   9   0.00   0.46024   1 ;    C25-   C28-   C29-   C26
    86    89    90    87   9   0.00   0.54392   3 ;    C25-   C28-   C29-   C26
    86    89    90    87   9   180.00   1.21336   2 ;    C25-   C28-   C29-   C26
    86    89    90    94   9   0.00   0.65084   3 ;    C25-   C28-   C29-   H45
    86    89    90    98   9   0.00   0.87864   3 ;    C25-   C28-   C29-   O22
    86    89    96    97   9   0.00   0.00000   0 ;    C25-   C28-   O21-   H47
    87    90    89    93   9   0.00   0.65084   3 ;    C26-   C29-   C28-   H44
    87    90    89    96   9   0.00   0.87864   3 ;    C26-   C29-   C28-   O21
    87    90    98    99   9   0.00   0.00000   0 ;    C26-   C29-   O22-   H48
    87   100    88    95   9   0.00   1.41001   3 ;    C26-   O23-   C27-   H46
    87   100    88   101   9   0.00   0.00000   0 ;    C26-   O23-   C27-   C30
    87   100    88   101   9   0.00   0.66944   2 ;    C26-   O23-   C27-   C30
    87   100    88   101   9   0.00   1.00416   3 ;    C26-   O23-   C27-   C30
    87   106   107   109   9   0.00   0.00000   0 ;    C26-   O25-   C31-   C33
    87   106   107   109   9   0.00   0.66944   2 ;    C26-   O25-   C31-   C33
    87   106   107   109   9   0.00   1.00416   3 ;    C26-   O25-   C31-   C33
    87   106   107   110   9   0.00   0.00000   0 ;    C26-   O25-   C31-   C34
    87   106   107   110   9   0.00   0.66944   2 ;    C26-   O25-   C31-   C34
    87   106   107   110   9   0.00   1.00416   3 ;    C26-   O25-   C31-   C34
    87   106   107   116   9   0.00   1.41001   3 ;    C26-   O25-   C31-   H56
    88    86    89    90   9   0.00   0.46024   1 ;    C27-   C25-   C28-   C29
    88    86    89    90   9   0.00   0.54392   3 ;    C27-   C25-   C28-   C29
    88    86    89    90   9   180.00   1.21336   2 ;    C27-   C25-   C28-   C29
    88    86    89    93   9   0.00   0.65084   3 ;    C27-   C25-   C28-   H44
    88    86    89    96   9   0.00   0.87864   3 ;    C27-   C25-   C28-   O21
    88   100    87    90   9   0.00   0.00000   0 ;    C27-   O23-   C26-   C29
    88   100    87    90   9   0.00   0.66944   2 ;    C27-   O23-   C26-   C29
    88   100    87    90   9   0.00   1.00416   3 ;    C27-   O23-   C26-   C29
    88   100    87    91   9   0.00   1.60387   3 ;    C27-   O23-   C26-   H42
    88   100    87   106   9   0.00   5.18816   2 ;    C27-   O23-   C26-   O25
    88   100    87   106   9   180.00   0.00000   3 ;    C27-   O23-   C26-   O25
    88   100    87   106   9   180.00   4.05848   1 ;    C27-   O23-   C26-   O25
    88   101   104   105   9   0.00   0.00000   0 ;    C27-   C30-   O24-   H51
    89    86    88    95   9   0.00   0.65084   3 ;    C28-   C25-   C27-   H46
    89    86    88   100   9   0.00   0.65084   3 ;    C28-   C25-   C27-   O23
    89    86    88   101   9   0.00   0.46024   1 ;    C28-   C25-   C27-   C30
    89    86    88   101   9   0.00   0.54392   3 ;    C28-   C25-   C27-   C30
    89    86    88   101   9   180.00   1.21336   2 ;    C28-   C25-   C27-   C30
    89    90    87    91   9   0.00   0.65084   3 ;    C28-   C29-   C26-   H42
    89    90    87   100   9   0.00   0.65084   3 ;    C28-   C29-   C26-   O23
    89    90    87   106   9   0.00   0.65084   3 ;    C28-   C29-   C26-   O25
    89    90    98    99   9   0.00   0.00000   0 ;    C28-   C29-   O22-   H48
    90    87   106   107   9   0.00   0.00000   0 ;    C29-   C26-   O25-   C31
    90    87   106   107   9   0.00   0.66944   2 ;    C29-   C26-   O25-   C31
    90    87   106   107   9   0.00   1.00416   3 ;    C29-   C26-   O25-   C31
    90    89    86    92   9   0.00   0.65084   3 ;    C29-   C28-   C25-   H43
    90    89    96    97   9   0.00   0.00000   0 ;    C29-   C28-   O21-   H47
    91    87    90    94   9   0.00   0.65084   3 ;    H42-   C26-   C29-   H45
    91    87    90    98   9   0.00   0.65084   3 ;    H42-   C26-   C29-   O22
    91    87   106   107   9   0.00   1.60387   3 ;    H42-   C26-   O25-   C31
    92    86    88    95   9   0.00   0.65084   3 ;    H43-   C25-   C27-   H46
    92    86    88   100   9   0.00   0.00000   0 ;    H43-   C25-   C27-   O23
    92    86    88   100   9   0.00   1.04600   1 ;    H43-   C25-   C27-   O23
    92    86    88   101   9   0.00   0.65084   3 ;    H43-   C25-   C27-   C30
    92    86    89    93   9   0.00   0.65084   3 ;    H43-   C25-   C28-   H44
    92    86    89    96   9   0.00   0.00000   0 ;    H43-   C25-   C28-   O21
    92    86    89    96   9   0.00   1.04600   1 ;    H43-   C25-   C28-   O21
    93    89    90    94   9   0.00   0.65084   3 ;    H44-   C28-   C29-   H45
    93    89    90    98   9   0.00   0.00000   0 ;    H44-   C28-   C29-   O22
    93    89    90    98   9   0.00   1.04600   1 ;    H44-   C28-   C29-   O22
    93    89    96    97   9   0.00   0.47279   3 ;    H44-   C28-   O21-   H47
    94    90    87   100   9   0.00   0.00000   0 ;    H45-   C29-   C26-   O23
    94    90    87   100   9   0.00   1.04600   1 ;    H45-   C29-   C26-   O23
    94    90    87   106   9   0.00   0.00000   0 ;    H45-   C29-   C26-   O25
    94    90    87   106   9   0.00   1.04600   1 ;    H45-   C29-   C26-   O25
    94    90    89    96   9   0.00   0.00000   0 ;    H45-   C29-   C28-   O21
    94    90    89    96   9   0.00   1.04600   1 ;    H45-   C29-   C28-   O21
    94    90    98    99   9   0.00   0.47279   3 ;    H45-   C29-   O22-   H48
    95    88   101   102   9   0.00   0.65084   3 ;    H46-   C27-   C30-   H49
    95    88   101   103   9   0.00   0.65084   3 ;    H46-   C27-   C30-   H50
    95    88   101   104   9   0.00   0.00000   0 ;    H46-   C27-   C30-   O24
    95    88   101   104   9   0.00   1.04600   1 ;    H46-   C27-   C30-   O24
    96    89    90    98   9   0.00   3.76560   3 ;    O21-   C28-   C29-   O22
    96    89    90    98   9   0.00   4.72792   2 ;    O21-   C28-   C29-   O22
    98    90    87   100   9   0.00   0.00000   0 ;    O22-   C29-   C26-   O23
    98    90    87   100   9   0.00   4.22584   3 ;    O22-   C29-   C26-   O23
    98    90    87   100   9   180.00   0.08368   1 ;    O22-   C29-   C26-   O23
    98    90    87   106   9   0.00   0.00000   0 ;    O22-   C29-   C26-   O25
    98    90    87   106   9   0.00   4.22584   3 ;    O22-   C29-   C26-   O25
    98    90    87   106   9   180.00   0.08368   1 ;    O22-   C29-   C26-   O25
   100    87   106   107   9   0.00   5.18816   2 ;    O23-   C26-   O25-   C31
   100    87   106   107   9   180.00   0.00000   3 ;    O23-   C26-   O25-   C31
   100    87   106   107   9   180.00   4.05848   1 ;    O23-   C26-   O25-   C31
   100    88   101   102   9   0.00   0.00000   0 ;    O23-   C27-   C30-   H49
   100    88   101   102   9   0.00   1.04600   1 ;    O23-   C27-   C30-   H49
   100    88   101   103   9   0.00   0.00000   0 ;    O23-   C27-   C30-   H50
   100    88   101   103   9   0.00   1.04600   1 ;    O23-   C27-   C30-   H50
   100    88   101   104   9   0.00   0.00000   0 ;    O23-   C27-   C30-   O24
   100    88   101   104   9   0.00   4.22584   3 ;    O23-   C27-   C30-   O24
   100    88   101   104   9   180.00   0.08368   1 ;    O23-   C27-   C30-   O24
   102   101   104   105   9   0.00   0.47279   3 ;    H49-   C30-   O24-   H51
   103   101   104   105   9   0.00   0.47279   3 ;    H50-   C30-   O24-   H51
   106   107   109   108   9   0.00   0.65084   3 ;    O25-   C31-   C33-   C32
   106   107   109   112   9   0.00   0.00000   0 ;    O25-   C31-   C33-   H52
   106   107   109   112   9   0.00   1.04600   1 ;    O25-   C31-   C33-   H52
   106   107   109   125   9   0.00   0.00000   0 ;    O25-   C31-   C33-   O29
   106   107   109   125   9   0.00   4.22584   3 ;    O25-   C31-   C33-   O29
   106   107   109   125   9   180.00   0.08368   1 ;    O25-   C31-   C33-   O29
   106   107   110   114   9   0.00   0.00000   0 ;    O25-   C31-   C34-   H54
   106   107   110   114   9   0.00   1.04600   1 ;    O25-   C31-   C34-   H54
   106   107   110   117   9   0.00   0.00000   0 ;    O25-   C31-   C34-   O26
   106   107   110   117   9   180.00   0.00000   2 ;    O25-   C31-   C34-   O26
   106   107   110   117   9   180.00   0.71128   1 ;    O25-   C31-   C34-   O26
   106   107   110   118   9   0.00   0.65084   3 ;    O25-   C31-   C34-   C36
   107   109   108   111   9   0.00   0.46024   1 ;    C31-   C33-   C32-   C35
   107   109   108   111   9   0.00   0.54392   3 ;    C31-   C33-   C32-   C35
   107   109   108   111   9   180.00   1.21336   2 ;    C31-   C33-   C32-   C35
   107   109   108   113   9   0.00   0.65084   3 ;    C31-   C33-   C32-   H53
   107   109   108   123   9   0.00   0.87864   3 ;    C31-   C33-   C32-   O28
   107   109   125   126   9   0.00   0.00000   0 ;    C31-   C33-   O29-   H61
   107   110   117   111   9   0.00   0.00000   0 ;    C31-   C34-   O26-   C35
   107   110   117   111   9   0.00   0.66944   2 ;    C31-   C34-   O26-   C35
   107   110   117   111   9   0.00   1.00416   3 ;    C31-   C34-   O26-   C35
   107   110   118   119   9   0.00   0.65084   3 ;    C31-   C34-   C36-   H57
   107   110   118   120   9   0.00   0.65084   3 ;    C31-   C34-   C36-   H58
   107   110   118   121   9   0.00   0.87864   3 ;    C31-   C34-   C36-   O27
   108   109   107   110   9   0.00   0.46024   1 ;    C32-   C33-   C31-   C34
   108   109   107   110   9   0.00   0.54392   3 ;    C32-   C33-   C31-   C34
   108   109   107   110   9   180.00   1.21336   2 ;    C32-   C33-   C31-   C34
   108   109   107   116   9   0.00   0.65084   3 ;    C32-   C33-   C31-   H56
   108   109   125   126   9   0.00   0.00000   0 ;    C32-   C33-   O29-   H61
   108   111   117   110   9   0.00   0.00000   0 ;    C32-   C35-   O26-   C34
   108   111   117   110   9   0.00   0.66944   2 ;    C32-   C35-   O26-   C34
   108   111   117   110   9   0.00   1.00416   3 ;    C32-   C35-   O26-   C34
   108   111   127   128   9   0.00   0.00000   0 ;    C32-   C35-   O30-   C37
   108   111   127   128   9   0.00   0.66944   2 ;    C32-   C35-   O30-   C37
   108   111   127   128   9   0.00   1.00416   3 ;    C32-   C35-   O30-   C37
   109   107   110   114   9   0.00   0.65084   3 ;    C33-   C31-   C34-   H54
   109   107   110   117   9   0.00   0.65084   3 ;    C33-   C31-   C34-   O26
   109   107   110   118   9   0.00   0.46024   1 ;    C33-   C31-   C34-   C36
   109   107   110   118   9   0.00   0.54392   3 ;    C33-   C31-   C34-   C36
   109   107   110   118   9   180.00   1.21336   2 ;    C33-   C31-   C34-   C36
   109   108   111   115   9   0.00   0.65084   3 ;    C33-   C32-   C35-   H55
   109   108   111   117   9   0.00   0.65084   3 ;    C33-   C32-   C35-   O26
   109   108   111   127   9   0.00   0.65084   3 ;    C33-   C32-   C35-   O30
   109   108   123   124   9   0.00   0.00000   0 ;    C33-   C32-   O28-   H60
   110   107   109   112   9   0.00   0.65084   3 ;    C34-   C31-   C33-   H52
   110   107   109   125   9   0.00   0.87864   3 ;    C34-   C31-   C33-   O29
   110   117   111   115   9   0.00   1.60387   3 ;    C34-   O26-   C35-   H55
   110   117   111   127   9   0.00   5.18816   2 ;    C34-   O26-   C35-   O30
   110   117   111   127   9   180.00   0.00000   3 ;    C34-   O26-   C35-   O30
   110   117   111   127   9   180.00   4.05848   1 ;    C34-   O26-   C35-   O30
   110   118   121   122   9   0.00   0.00000   0 ;    C34-   C36-   O27-   H59
   111   108   109   112   9   0.00   0.65084   3 ;    C35-   C32-   C33-   H52
   111   108   109   125   9   0.00   0.87864   3 ;    C35-   C32-   C33-   O29
   111   108   123   124   9   0.00   0.00000   0 ;    C35-   C32-   O28-   H60
   111   117   110   114   9   0.00   1.41001   3 ;    C35-   O26-   C34-   H54
   111   117   110   118   9   0.00   0.00000   0 ;    C35-   O26-   C34-   C36
   111   117   110   118   9   0.00   0.66944   2 ;    C35-   O26-   C34-   C36
   111   117   110   118   9   0.00   1.00416   3 ;    C35-   O26-   C34-   C36
   111   127   128   130   9   0.00   0.00000   0 ;    C35-   O30-   C37-   C39
   111   127   128   130   9   0.00   0.66944   2 ;    C35-   O30-   C37-   C39
   111   127   128   130   9   0.00   1.00416   3 ;    C35-   O30-   C37-   C39
   111   127   128   131   9   0.00   0.00000   0 ;    C35-   O30-   C37-   C40
   111   127   128   131   9   0.00   0.66944   2 ;    C35-   O30-   C37-   C40
   111   127   128   131   9   0.00   1.00416   3 ;    C35-   O30-   C37-   C40
   111   127   128   134   9   0.00   1.41001   3 ;    C35-   O30-   C37-   H63
   112   109   107   116   9   0.00   0.65084   3 ;    H52-   C33-   C31-   H56
   112   109   108   113   9   0.00   0.65084   3 ;    H52-   C33-   C32-   H53
   112   109   108   123   9   0.00   0.00000   0 ;    H52-   C33-   C32-   O28
   112   109   108   123   9   0.00   1.04600   1 ;    H52-   C33-   C32-   O28
   112   109   125   126   9   0.00   0.47279   3 ;    H52-   C33-   O29-   H61
   113   108   109   125   9   0.00   0.00000   0 ;    H53-   C32-   C33-   O29
   113   108   109   125   9   0.00   1.04600   1 ;    H53-   C32-   C33-   O29
   113   108   111   115   9   0.00   0.65084   3 ;    H53-   C32-   C35-   H55
   113   108   111   117   9   0.00   0.00000   0 ;    H53-   C32-   C35-   O26
   113   108   111   117   9   0.00   1.04600   1 ;    H53-   C32-   C35-   O26
   113   108   111   127   9   0.00   0.00000   0 ;    H53-   C32-   C35-   O30
   113   108   111   127   9   0.00   1.04600   1 ;    H53-   C32-   C35-   O30
   113   108   123   124   9   0.00   0.47279   3 ;    H53-   C32-   O28-   H60
   114   110   107   116   9   0.00   0.65084   3 ;    H54-   C34-   C31-   H56
   114   110   118   119   9   0.00   0.65084   3 ;    H54-   C34-   C36-   H57
   114   110   118   120   9   0.00   0.65084   3 ;    H54-   C34-   C36-   H58
   114   110   118   121   9   0.00   0.00000   0 ;    H54-   C34-   C36-   O27
   114   110   118   121   9   0.00   1.04600   1 ;    H54-   C34-   C36-   O27
   115   111   108   123   9   0.00   0.65084   3 ;    H55-   C35-   C32-   O28
   115   111   127   128   9   0.00   1.60387   3 ;    H55-   C35-   O30-   C37
   116   107   109   125   9   0.00   0.00000   0 ;    H56-   C31-   C33-   O29
   116   107   109   125   9   0.00   1.04600   1 ;    H56-   C31-   C33-   O29
   116   107   110   117   9   0.00   0.00000   0 ;    H56-   C31-   C34-   O26
   116   107   110   117   9   0.00   1.04600   1 ;    H56-   C31-   C34-   O26
   116   107   110   118   9   0.00   0.65084   3 ;    H56-   C31-   C34-   C36
   117   110   118   119   9   0.00   0.00000   0 ;    O26-   C34-   C36-   H57
   117   110   118   119   9   0.00   1.04600   1 ;    O26-   C34-   C36-   H57
   117   110   118   120   9   0.00   0.00000   0 ;    O26-   C34-   C36-   H58
   117   110   118   120   9   0.00   1.04600   1 ;    O26-   C34-   C36-   H58
   117   110   118   121   9   0.00   0.00000   0 ;    O26-   C34-   C36-   O27
   117   110   118   121   9   0.00   4.22584   3 ;    O26-   C34-   C36-   O27
   117   110   118   121   9   180.00   0.08368   1 ;    O26-   C34-   C36-   O27
   117   111   108   123   9   0.00   0.00000   0 ;    O26-   C35-   C32-   O28
   117   111   108   123   9   0.00   4.22584   3 ;    O26-   C35-   C32-   O28
   117   111   108   123   9   180.00   0.08368   1 ;    O26-   C35-   C32-   O28
   117   111   127   128   9   0.00   5.18816   2 ;    O26-   C35-   O30-   C37
   117   111   127   128   9   180.00   0.00000   3 ;    O26-   C35-   O30-   C37
   117   111   127   128   9   180.00   4.05848   1 ;    O26-   C35-   O30-   C37
   119   118   121   122   9   0.00   0.47279   3 ;    H57-   C36-   O27-   H59
   120   118   121   122   9   0.00   0.47279   3 ;    H58-   C36-   O27-   H59
   123   108   109   125   9   0.00   3.76560   3 ;    O28-   C32-   C33-   O29
   123   108   109   125   9   0.00   4.72792   2 ;    O28-   C32-   C33-   O29
   123   108   111   127   9   0.00   0.00000   0 ;    O28-   C32-   C35-   O30
   123   108   111   127   9   0.00   4.22584   3 ;    O28-   C32-   C35-   O30
   123   108   111   127   9   180.00   0.08368   1 ;    O28-   C32-   C35-   O30
   127   128   130   137   9   0.00   0.00000   0 ;    O30-   C37-   C39-   H66
   127   128   130   137   9   0.00   1.04600   1 ;    O30-   C37-   C39-   H66
   127   128   130   142   9   0.00   0.00000   0 ;    O30-   C37-   C39-   O33
   127   128   130   142   9   180.00   0.00000   2 ;    O30-   C37-   C39-   O33
   127   128   130   142   9   180.00   0.71128   1 ;    O30-   C37-   C39-   O33
   127   128   130   143   9   0.00   0.65084   3 ;    O30-   C37-   C39-   C42
   127   128   131   132   9   0.00   0.65084   3 ;    O30-   C37-   C40-   C41
   127   128   131   135   9   0.00   0.00000   0 ;    O30-   C37-   C40-   H64
   127   128   131   135   9   0.00   1.04600   1 ;    O30-   C37-   C40-   H64
   127   128   131   138   9   0.00   0.00000   0 ;    O30-   C37-   C40-   O31
   127   128   131   138   9   0.00   4.22584   3 ;    O30-   C37-   C40-   O31
   127   128   131   138   9   180.00   0.08368   1 ;    O30-   C37-   C40-   O31
   128   130   142   129   9   0.00   0.00000   0 ;    C37-   C39-   O33-   C38
   128   130   142   129   9   0.00   0.66944   2 ;    C37-   C39-   O33-   C38
   128   130   142   129   9   0.00   1.00416   3 ;    C37-   C39-   O33-   C38
   128   130   143   144   9   0.00   0.65084   3 ;    C37-   C39-   C42-   H69
   128   130   143   145   9   0.00   0.65084   3 ;    C37-   C39-   C42-   H70
   128   130   143   146   9   0.00   0.87864   3 ;    C37-   C39-   C42-   O34
   128   131   132   129   9   0.00   0.46024   1 ;    C37-   C40-   C41-   C38
   128   131   132   129   9   0.00   0.54392   3 ;    C37-   C40-   C41-   C38
   128   131   132   129   9   180.00   1.21336   2 ;    C37-   C40-   C41-   C38
   128   131   132   136   9   0.00   0.65084   3 ;    C37-   C40-   C41-   H65
   128   131   132   140   9   0.00   0.87864   3 ;    C37-   C40-   C41-   O32
   128   131   138   139   9   0.00   0.00000   0 ;    C37-   C40-   O31-   H67
   129   132   131   135   9   0.00   0.65084   3 ;    C38-   C41-   C40-   H64
   129   132   131   138   9   0.00   0.87864   3 ;    C38-   C41-   C40-   O31
   129   132   140   141   9   0.00   0.00000   0 ;    C38-   C41-   O32-   H68
   129   142   130   137   9   0.00   1.41001   3 ;    C38-   O33-   C39-   H66
   129   142   130   143   9   0.00   0.00000   0 ;    C38-   O33-   C39-   C42
   129   142   130   143   9   0.00   0.66944   2 ;    C38-   O33-   C39-   C42
   129   142   130   143   9   0.00   1.00416   3 ;    C38-   O33-   C39-   C42
   129   148   149   151   9   0.00   0.00000   0 ;    C38-   O35-   C43-   C45
   129   148   149   151   9   0.00   0.66944   2 ;    C38-   O35-   C43-   C45
   129   148   149   151   9   0.00   1.00416   3 ;    C38-   O35-   C43-   C45
   129   148   149   152   9   0.00   0.00000   0 ;    C38-   O35-   C43-   C46
   129   148   149   152   9   0.00   0.66944   2 ;    C38-   O35-   C43-   C46
   129   148   149   152   9   0.00   1.00416   3 ;    C38-   O35-   C43-   C46
   129   148   149   158   9   0.00   1.41001   3 ;    C38-   O35-   C43-   H76
   130   128   131   132   9   0.00   0.46024   1 ;    C39-   C37-   C40-   C41
   130   128   131   132   9   0.00   0.54392   3 ;    C39-   C37-   C40-   C41
   130   128   131   132   9   180.00   1.21336   2 ;    C39-   C37-   C40-   C41
   130   128   131   135   9   0.00   0.65084   3 ;    C39-   C37-   C40-   H64
   130   128   131   138   9   0.00   0.87864   3 ;    C39-   C37-   C40-   O31
   130   142   129   132   9   0.00   0.00000   0 ;    C39-   O33-   C38-   C41
   130   142   129   132   9   0.00   0.66944   2 ;    C39-   O33-   C38-   C41
   130   142   129   132   9   0.00   1.00416   3 ;    C39-   O33-   C38-   C41
   130   142   129   133   9   0.00   1.60387   3 ;    C39-   O33-   C38-   H62
   130   142   129   148   9   0.00   5.18816   2 ;    C39-   O33-   C38-   O35
   130   142   129   148   9   180.00   0.00000   3 ;    C39-   O33-   C38-   O35
   130   142   129   148   9   180.00   4.05848   1 ;    C39-   O33-   C38-   O35
   130   143   146   147   9   0.00   0.00000   0 ;    C39-   C42-   O34-   H71
   131   128   130   137   9   0.00   0.65084   3 ;    C40-   C37-   C39-   H66
   131   128   130   142   9   0.00   0.65084   3 ;    C40-   C37-   C39-   O33
   131   128   130   143   9   0.00   0.46024   1 ;    C40-   C37-   C39-   C42
   131   128   130   143   9   0.00   0.54392   3 ;    C40-   C37-   C39-   C42
   131   128   130   143   9   180.00   1.21336   2 ;    C40-   C37-   C39-   C42
   131   132   129   133   9   0.00   0.65084   3 ;    C40-   C41-   C38-   H62
   131   132   129   142   9   0.00   0.65084   3 ;    C40-   C41-   C38-   O33
   131   132   129   148   9   0.00   0.65084   3 ;    C40-   C41-   C38-   O35
   131   132   140   141   9   0.00   0.00000   0 ;    C40-   C41-   O32-   H68
   132   129   148   149   9   0.00   0.00000   0 ;    C41-   C38-   O35-   C43
   132   129   148   149   9   0.00   0.66944   2 ;    C41-   C38-   O35-   C43
   132   129   148   149   9   0.00   1.00416   3 ;    C41-   C38-   O35-   C43
   132   131   128   134   9   0.00   0.65084   3 ;    C41-   C40-   C37-   H63
   132   131   138   139   9   0.00   0.00000   0 ;    C41-   C40-   O31-   H67
   133   129   132   136   9   0.00   0.65084   3 ;    H62-   C38-   C41-   H65
   133   129   132   140   9   0.00   0.65084   3 ;    H62-   C38-   C41-   O32
   133   129   148   149   9   0.00   1.60387   3 ;    H62-   C38-   O35-   C43
   134   128   130   137   9   0.00   0.65084   3 ;    H63-   C37-   C39-   H66
   134   128   130   142   9   0.00   0.00000   0 ;    H63-   C37-   C39-   O33
   134   128   130   142   9   0.00   1.04600   1 ;    H63-   C37-   C39-   O33
   134   128   130   143   9   0.00   0.65084   3 ;    H63-   C37-   C39-   C42
   134   128   131   135   9   0.00   0.65084   3 ;    H63-   C37-   C40-   H64
   134   128   131   138   9   0.00   0.00000   0 ;    H63-   C37-   C40-   O31
   134   128   131   138   9   0.00   1.04600   1 ;    H63-   C37-   C40-   O31
   135   131   132   136   9   0.00   0.65084   3 ;    H64-   C40-   C41-   H65
   135   131   132   140   9   0.00   0.00000   0 ;    H64-   C40-   C41-   O32
   135   131   132   140   9   0.00   1.04600   1 ;    H64-   C40-   C41-   O32
   135   131   138   139   9   0.00   0.47279   3 ;    H64-   C40-   O31-   H67
   136   132   129   142   9   0.00   0.00000   0 ;    H65-   C41-   C38-   O33
   136   132   129   142   9   0.00   1.04600   1 ;    H65-   C41-   C38-   O33
   136   132   129   148   9   0.00   0.00000   0 ;    H65-   C41-   C38-   O35
   136   132   129   148   9   0.00   1.04600   1 ;    H65-   C41-   C38-   O35
   136   132   131   138   9   0.00   0.00000   0 ;    H65-   C41-   C40-   O31
   136   132   131   138   9   0.00   1.04600   1 ;    H65-   C41-   C40-   O31
   136   132   140   141   9   0.00   0.47279   3 ;    H65-   C41-   O32-   H68
   137   130   143   144   9   0.00   0.65084   3 ;    H66-   C39-   C42-   H69
   137   130   143   145   9   0.00   0.65084   3 ;    H66-   C39-   C42-   H70
   137   130   143   146   9   0.00   0.00000   0 ;    H66-   C39-   C42-   O34
   137   130   143   146   9   0.00   1.04600   1 ;    H66-   C39-   C42-   O34
   138   131   132   140   9   0.00   3.76560   3 ;    O31-   C40-   C41-   O32
   138   131   132   140   9   0.00   4.72792   2 ;    O31-   C40-   C41-   O32
   140   132   129   142   9   0.00   0.00000   0 ;    O32-   C41-   C38-   O33
   140   132   129   142   9   0.00   4.22584   3 ;    O32-   C41-   C38-   O33
   140   132   129   142   9   180.00   0.08368   1 ;    O32-   C41-   C38-   O33
   140   132   129   148   9   0.00   0.00000   0 ;    O32-   C41-   C38-   O35
   140   132   129   148   9   0.00   4.22584   3 ;    O32-   C41-   C38-   O35
   140   132   129   148   9   180.00   0.08368   1 ;    O32-   C41-   C38-   O35
   142   129   148   149   9   0.00   5.18816   2 ;    O33-   C38-   O35-   C43
   142   129   148   149   9   180.00   0.00000   3 ;    O33-   C38-   O35-   C43
   142   129   148   149   9   180.00   4.05848   1 ;    O33-   C38-   O35-   C43
   142   130   143   144   9   0.00   0.00000   0 ;    O33-   C39-   C42-   H69
   142   130   143   144   9   0.00   1.04600   1 ;    O33-   C39-   C42-   H69
   142   130   143   145   9   0.00   0.00000   0 ;    O33-   C39-   C42-   H70
   142   130   143   145   9   0.00   1.04600   1 ;    O33-   C39-   C42-   H70
   142   130   143   146   9   0.00   0.00000   0 ;    O33-   C39-   C42-   O34
   142   130   143   146   9   0.00   4.22584   3 ;    O33-   C39-   C42-   O34
   142   130   143   146   9   180.00   0.08368   1 ;    O33-   C39-   C42-   O34
   144   143   146   147   9   0.00   0.47279   3 ;    H69-   C42-   O34-   H71
   145   143   146   147   9   0.00   0.47279   3 ;    H70-   C42-   O34-   H71
   148   149   151   150   9   0.00   0.65084   3 ;    O35-   C43-   C45-   C44
   148   149   151   154   9   0.00   0.00000   0 ;    O35-   C43-   C45-   H72
   148   149   151   154   9   0.00   1.04600   1 ;    O35-   C43-   C45-   H72
   148   149   151   167   9   0.00   0.00000   0 ;    O35-   C43-   C45-   O39
   148   149   151   167   9   0.00   4.22584   3 ;    O35-   C43-   C45-   O39
   148   149   151   167   9   180.00   0.08368   1 ;    O35-   C43-   C45-   O39
   148   149   152   156   9   0.00   0.00000   0 ;    O35-   C43-   C46-   H74
   148   149   152   156   9   0.00   1.04600   1 ;    O35-   C43-   C46-   H74
   148   149   152   159   9   0.00   0.00000   0 ;    O35-   C43-   C46-   O36
   148   149   152   159   9   180.00   0.00000   2 ;    O35-   C43-   C46-   O36
   148   149   152   159   9   180.00   0.71128   1 ;    O35-   C43-   C46-   O36
   148   149   152   160   9   0.00   0.65084   3 ;    O35-   C43-   C46-   C48
   149   151   150   153   9   0.00   0.46024   1 ;    C43-   C45-   C44-   C47
   149   151   150   153   9   0.00   0.54392   3 ;    C43-   C45-   C44-   C47
   149   151   150   153   9   180.00   1.21336   2 ;    C43-   C45-   C44-   C47
   149   151   150   155   9   0.00   0.65084   3 ;    C43-   C45-   C44-   H73
   149   151   150   165   9   0.00   0.87864   3 ;    C43-   C45-   C44-   O38
   149   151   167   168   9   0.00   0.00000   0 ;    C43-   C45-   O39-   H81
   149   152   159   153   9   0.00   0.00000   0 ;    C43-   C46-   O36-   C47
   149   152   159   153   9   0.00   0.66944   2 ;    C43-   C46-   O36-   C47
   149   152   159   153   9   0.00   1.00416   3 ;    C43-   C46-   O36-   C47
   149   152   160   161   9   0.00   0.65084   3 ;    C43-   C46-   C48-   H77
   149   152   160   162   9   0.00   0.65084   3 ;    C43-   C46-   C48-   H78
   149   152   160   163   9   0.00   0.87864   3 ;    C43-   C46-   C48-   O37
   150   151   149   152   9   0.00   0.46024   1 ;    C44-   C45-   C43-   C46
   150   151   149   152   9   0.00   0.54392   3 ;    C44-   C45-   C43-   C46
   150   151   149   152   9   180.00   1.21336   2 ;    C44-   C45-   C43-   C46
   150   151   149   158   9   0.00   0.65084   3 ;    C44-   C45-   C43-   H76
   150   151   167   168   9   0.00   0.00000   0 ;    C44-   C45-   O39-   H81
   150   153   159   152   9   0.00   0.00000   0 ;    C44-   C47-   O36-   C46
   150   153   159   152   9   0.00   0.66944   2 ;    C44-   C47-   O36-   C46
   150   153   159   152   9   0.00   1.00416   3 ;    C44-   C47-   O36-   C46
   150   153   169   170   9   0.00   0.00000   0 ;    C44-   C47-   O40-   C49
   150   153   169   170   9   0.00   0.66944   2 ;    C44-   C47-   O40-   C49
   150   153   169   170   9   0.00   1.00416   3 ;    C44-   C47-   O40-   C49
   151   149   152   156   9   0.00   0.65084   3 ;    C45-   C43-   C46-   H74
   151   149   152   159   9   0.00   0.65084   3 ;    C45-   C43-   C46-   O36
   151   149   152   160   9   0.00   0.46024   1 ;    C45-   C43-   C46-   C48
   151   149   152   160   9   0.00   0.54392   3 ;    C45-   C43-   C46-   C48
   151   149   152   160   9   180.00   1.21336   2 ;    C45-   C43-   C46-   C48
   151   150   153   157   9   0.00   0.65084   3 ;    C45-   C44-   C47-   H75
   151   150   153   159   9   0.00   0.65084   3 ;    C45-   C44-   C47-   O36
   151   150   153   169   9   0.00   0.65084   3 ;    C45-   C44-   C47-   O40
   151   150   165   166   9   0.00   0.00000   0 ;    C45-   C44-   O38-   H80
   152   149   151   154   9   0.00   0.65084   3 ;    C46-   C43-   C45-   H72
   152   149   151   167   9   0.00   0.87864   3 ;    C46-   C43-   C45-   O39
   152   159   153   157   9   0.00   1.60387   3 ;    C46-   O36-   C47-   H75
   152   159   153   169   9   0.00   5.18816   2 ;    C46-   O36-   C47-   O40
   152   159   153   169   9   180.00   0.00000   3 ;    C46-   O36-   C47-   O40
   152   159   153   169   9   180.00   4.05848   1 ;    C46-   O36-   C47-   O40
   152   160   163   164   9   0.00   0.00000   0 ;    C46-   C48-   O37-   H79
   153   150   151   154   9   0.00   0.65084   3 ;    C47-   C44-   C45-   H72
   153   150   151   167   9   0.00   0.87864   3 ;    C47-   C44-   C45-   O39
   153   150   165   166   9   0.00   0.00000   0 ;    C47-   C44-   O38-   H80
   153   159   152   156   9   0.00   1.41001   3 ;    C47-   O36-   C46-   H74
   153   159   152   160   9   0.00   0.00000   0 ;    C47-   O36-   C46-   C48
   153   159   152   160   9   0.00   0.66944   2 ;    C47-   O36-   C46-   C48
   153   159   152   160   9   0.00   1.00416   3 ;    C47-   O36-   C46-   C48
   153   169   170   172   9   0.00   0.00000   0 ;    C47-   O40-   C49-   C51
   153   169   170   172   9   0.00   0.66944   2 ;    C47-   O40-   C49-   C51
   153   169   170   172   9   0.00   1.00416   3 ;    C47-   O40-   C49-   C51
   153   169   170   173   9   0.00   0.00000   0 ;    C47-   O40-   C49-   C52
   153   169   170   173   9   0.00   0.66944   2 ;    C47-   O40-   C49-   C52
   153   169   170   173   9   0.00   1.00416   3 ;    C47-   O40-   C49-   C52
   153   169   170   176   9   0.00   1.41001   3 ;    C47-   O40-   C49-   H83
   154   151   149   158   9   0.00   0.65084   3 ;    H72-   C45-   C43-   H76
   154   151   150   155   9   0.00   0.65084   3 ;    H72-   C45-   C44-   H73
   154   151   150   165   9   0.00   0.00000   0 ;    H72-   C45-   C44-   O38
   154   151   150   165   9   0.00   1.04600   1 ;    H72-   C45-   C44-   O38
   154   151   167   168   9   0.00   0.47279   3 ;    H72-   C45-   O39-   H81
   155   150   151   167   9   0.00   0.00000   0 ;    H73-   C44-   C45-   O39
   155   150   151   167   9   0.00   1.04600   1 ;    H73-   C44-   C45-   O39
   155   150   153   157   9   0.00   0.65084   3 ;    H73-   C44-   C47-   H75
   155   150   153   159   9   0.00   0.00000   0 ;    H73-   C44-   C47-   O36
   155   150   153   159   9   0.00   1.04600   1 ;    H73-   C44-   C47-   O36
   155   150   153   169   9   0.00   0.00000   0 ;    H73-   C44-   C47-   O40
   155   150   153   169   9   0.00   1.04600   1 ;    H73-   C44-   C47-   O40
   155   150   165   166   9   0.00   0.47279   3 ;    H73-   C44-   O38-   H80
   156   152   149   158   9   0.00   0.65084   3 ;    H74-   C46-   C43-   H76
   156   152   160   161   9   0.00   0.65084   3 ;    H74-   C46-   C48-   H77
   156   152   160   162   9   0.00   0.65084   3 ;    H74-   C46-   C48-   H78
   156   152   160   163   9   0.00   0.00000   0 ;    H74-   C46-   C48-   O37
   156   152   160   163   9   0.00   1.04600   1 ;    H74-   C46-   C48-   O37
   157   153   150   165   9   0.00   0.65084   3 ;    H75-   C47-   C44-   O38
   157   153   169   170   9   0.00   1.60387   3 ;    H75-   C47-   O40-   C49
   158   149   151   167   9   0.00   0.00000   0 ;    H76-   C43-   C45-   O39
   158   149   151   167   9   0.00   1.04600   1 ;    H76-   C43-   C45-   O39
   158   149   152   159   9   0.00   0.00000   0 ;    H76-   C43-   C46-   O36
   158   149   152   159   9   0.00   1.04600   1 ;    H76-   C43-   C46-   O36
   158   149   152   160   9   0.00   0.65084   3 ;    H76-   C43-   C46-   C48
   159   152   160   161   9   0.00   0.00000   0 ;    O36-   C46-   C48-   H77
   159   152   160   161   9   0.00   1.04600   1 ;    O36-   C46-   C48-   H77
   159   152   160   162   9   0.00   0.00000   0 ;    O36-   C46-   C48-   H78
   159   152   160   162   9   0.00   1.04600   1 ;    O36-   C46-   C48-   H78
   159   152   160   163   9   0.00   0.00000   0 ;    O36-   C46-   C48-   O37
   159   152   160   163   9   0.00   4.22584   3 ;    O36-   C46-   C48-   O37
   159   152   160   163   9   180.00   0.08368   1 ;    O36-   C46-   C48-   O37
   159   153   150   165   9   0.00   0.00000   0 ;    O36-   C47-   C44-   O38
   159   153   150   165   9   0.00   4.22584   3 ;    O36-   C47-   C44-   O38
   159   153   150   165   9   180.00   0.08368   1 ;    O36-   C47-   C44-   O38
   159   153   169   170   9   0.00   5.18816   2 ;    O36-   C47-   O40-   C49
   159   153   169   170   9   180.00   0.00000   3 ;    O36-   C47-   O40-   C49
   159   153   169   170   9   180.00   4.05848   1 ;    O36-   C47-   O40-   C49
   161   160   163   164   9   0.00   0.47279   3 ;    H77-   C48-   O37-   H79
   162   160   163   164   9   0.00   0.47279   3 ;    H78-   C48-   O37-   H79
   165   150   151   167   9   0.00   3.76560   3 ;    O38-   C44-   C45-   O39
   165   150   151   167   9   0.00   4.72792   2 ;    O38-   C44-   C45-   O39
   165   150   153   169   9   0.00   0.00000   0 ;    O38-   C44-   C47-   O40
   165   150   153   169   9   0.00   4.22584   3 ;    O38-   C44-   C47-   O40
   165   150   153   169   9   180.00   0.08368   1 ;    O38-   C44-   C47-   O40
   169   170   172   179   9   0.00   0.00000   0 ;    O40-   C49-   C51-   H86
   169   170   172   179   9   0.00   1.04600   1 ;    O40-   C49-   C51-   H86
   169   170   172   184   9   0.00   0.00000   0 ;    O40-   C49-   C51-   O43
   169   170   172   184   9   180.00   0.00000   2 ;    O40-   C49-   C51-   O43
   169   170   172   184   9   180.00   0.71128   1 ;    O40-   C49-   C51-   O43
   169   170   172   185   9   0.00   0.65084   3 ;    O40-   C49-   C51-   C54
   169   170   173   174   9   0.00   0.65084   3 ;    O40-   C49-   C52-   C53
   169   170   173   177   9   0.00   0.00000   0 ;    O40-   C49-   C52-   H84
   169   170   173   177   9   0.00   1.04600   1 ;    O40-   C49-   C52-   H84
   169   170   173   180   9   0.00   0.00000   0 ;    O40-   C49-   C52-   O41
   169   170   173   180   9   0.00   4.22584   3 ;    O40-   C49-   C52-   O41
   169   170   173   180   9   180.00   0.08368   1 ;    O40-   C49-   C52-   O41
   170   172   184   171   9   0.00   0.00000   0 ;    C49-   C51-   O43-   C50
   170   172   184   171   9   0.00   0.66944   2 ;    C49-   C51-   O43-   C50
   170   172   184   171   9   0.00   1.00416   3 ;    C49-   C51-   O43-   C50
   170   172   185   186   9   0.00   0.65084   3 ;    C49-   C51-   C54-   H89
   170   172   185   187   9   0.00   0.65084   3 ;    C49-   C51-   C54-   H90
   170   172   185   188   9   0.00   0.87864   3 ;    C49-   C51-   C54-   O44
   170   173   174   171   9   0.00   0.46024   1 ;    C49-   C52-   C53-   C50
   170   173   174   171   9   0.00   0.54392   3 ;    C49-   C52-   C53-   C50
   170   173   174   171   9   180.00   1.21336   2 ;    C49-   C52-   C53-   C50
   170   173   174   178   9   0.00   0.65084   3 ;    C49-   C52-   C53-   H85
   170   173   174   182   9   0.00   0.87864   3 ;    C49-   C52-   C53-   O42
   170   173   180   181   9   0.00   0.00000   0 ;    C49-   C52-   O41-   H87
   171   174   173   177   9   0.00   0.65084   3 ;    C50-   C53-   C52-   H84
   171   174   173   180   9   0.00   0.87864   3 ;    C50-   C53-   C52-   O41
   171   174   182   183   9   0.00   0.00000   0 ;    C50-   C53-   O42-   H88
   171   184   172   179   9   0.00   1.41001   3 ;    C50-   O43-   C51-   H86
   171   184   172   185   9   0.00   0.00000   0 ;    C50-   O43-   C51-   C54
   171   184   172   185   9   0.00   0.66944   2 ;    C50-   O43-   C51-   C54
   171   184   172   185   9   0.00   1.00416   3 ;    C50-   O43-   C51-   C54
   171   190   191   193   9   0.00   0.00000   0 ;    C50-   O45-   C55-   C57
   171   190   191   193   9   0.00   0.66944   2 ;    C50-   O45-   C55-   C57
   171   190   191   193   9   0.00   1.00416   3 ;    C50-   O45-   C55-   C57
   171   190   191   194   9   0.00   0.00000   0 ;    C50-   O45-   C55-   C58
   171   190   191   194   9   0.00   0.66944   2 ;    C50-   O45-   C55-   C58
   171   190   191   194   9   0.00   1.00416   3 ;    C50-   O45-   C55-   C58
   171   190   191   200   9   0.00   1.41001   3 ;    C50-   O45-   C55-   H96
   172   170   173   174   9   0.00   0.46024   1 ;    C51-   C49-   C52-   C53
   172   170   173   174   9   0.00   0.54392   3 ;    C51-   C49-   C52-   C53
   172   170   173   174   9   180.00   1.21336   2 ;    C51-   C49-   C52-   C53
   172   170   173   177   9   0.00   0.65084   3 ;    C51-   C49-   C52-   H84
   172   170   173   180   9   0.00   0.87864   3 ;    C51-   C49-   C52-   O41
   172   184   171   174   9   0.00   0.00000   0 ;    C51-   O43-   C50-   C53
   172   184   171   174   9   0.00   0.66944   2 ;    C51-   O43-   C50-   C53
   172   184   171   174   9   0.00   1.00416   3 ;    C51-   O43-   C50-   C53
   172   184   171   175   9   0.00   1.60387   3 ;    C51-   O43-   C50-   H82
   172   184   171   190   9   0.00   5.18816   2 ;    C51-   O43-   C50-   O45
   172   184   171   190   9   180.00   0.00000   3 ;    C51-   O43-   C50-   O45
   172   184   171   190   9   180.00   4.05848   1 ;    C51-   O43-   C50-   O45
   172   185   188   189   9   0.00   0.00000   0 ;    C51-   C54-   O44-   H91
   173   170   172   179   9   0.00   0.65084   3 ;    C52-   C49-   C51-   H86
   173   170   172   184   9   0.00   0.65084   3 ;    C52-   C49-   C51-   O43
   173   170   172   185   9   0.00   0.46024   1 ;    C52-   C49-   C51-   C54
   173   170   172   185   9   0.00   0.54392   3 ;    C52-   C49-   C51-   C54
   173   170   172   185   9   180.00   1.21336   2 ;    C52-   C49-   C51-   C54
   173   174   171   175   9   0.00   0.65084   3 ;    C52-   C53-   C50-   H82
   173   174   171   184   9   0.00   0.65084   3 ;    C52-   C53-   C50-   O43
   173   174   171   190   9   0.00   0.65084   3 ;    C52-   C53-   C50-   O45
   173   174   182   183   9   0.00   0.00000   0 ;    C52-   C53-   O42-   H88
   174   171   190   191   9   0.00   0.00000   0 ;    C53-   C50-   O45-   C55
   174   171   190   191   9   0.00   0.66944   2 ;    C53-   C50-   O45-   C55
   174   171   190   191   9   0.00   1.00416   3 ;    C53-   C50-   O45-   C55
   174   173   170   176   9   0.00   0.65084   3 ;    C53-   C52-   C49-   H83
   174   173   180   181   9   0.00   0.00000   0 ;    C53-   C52-   O41-   H87
   175   171   174   178   9   0.00   0.65084   3 ;    H82-   C50-   C53-   H85
   175   171   174   182   9   0.00   0.65084   3 ;    H82-   C50-   C53-   O42
   175   171   190   191   9   0.00   1.60387   3 ;    H82-   C50-   O45-   C55
   176   170   172   179   9   0.00   0.65084   3 ;    H83-   C49-   C51-   H86
   176   170   172   184   9   0.00   0.00000   0 ;    H83-   C49-   C51-   O43
   176   170   172   184   9   0.00   1.04600   1 ;    H83-   C49-   C51-   O43
   176   170   172   185   9   0.00   0.65084   3 ;    H83-   C49-   C51-   C54
   176   170   173   177   9   0.00   0.65084   3 ;    H83-   C49-   C52-   H84
   176   170   173   180   9   0.00   0.00000   0 ;    H83-   C49-   C52-   O41
   176   170   173   180   9   0.00   1.04600   1 ;    H83-   C49-   C52-   O41
   177   173   174   178   9   0.00   0.65084   3 ;    H84-   C52-   C53-   H85
   177   173   174   182   9   0.00   0.00000   0 ;    H84-   C52-   C53-   O42
   177   173   174   182   9   0.00   1.04600   1 ;    H84-   C52-   C53-   O42
   177   173   180   181   9   0.00   0.47279   3 ;    H84-   C52-   O41-   H87
   178   174   171   184   9   0.00   0.00000   0 ;    H85-   C53-   C50-   O43
   178   174   171   184   9   0.00   1.04600   1 ;    H85-   C53-   C50-   O43
   178   174   171   190   9   0.00   0.00000   0 ;    H85-   C53-   C50-   O45
   178   174   171   190   9   0.00   1.04600   1 ;    H85-   C53-   C50-   O45
   178   174   173   180   9   0.00   0.00000   0 ;    H85-   C53-   C52-   O41
   178   174   173   180   9   0.00   1.04600   1 ;    H85-   C53-   C52-   O41
   178   174   182   183   9   0.00   0.47279   3 ;    H85-   C53-   O42-   H88
   179   172   185   186   9   0.00   0.65084   3 ;    H86-   C51-   C54-   H89
   179   172   185   187   9   0.00   0.65084   3 ;    H86-   C51-   C54-   H90
   179   172   185   188   9   0.00   0.00000   0 ;    H86-   C51-   C54-   O44
   179   172   185   188   9   0.00   1.04600   1 ;    H86-   C51-   C54-   O44
   180   173   174   182   9   0.00   3.76560   3 ;    O41-   C52-   C53-   O42
   180   173   174   182   9   0.00   4.72792   2 ;    O41-   C52-   C53-   O42
   182   174   171   184   9   0.00   0.00000   0 ;    O42-   C53-   C50-   O43
   182   174   171   184   9   0.00   4.22584   3 ;    O42-   C53-   C50-   O43
   182   174   171   184   9   180.00   0.08368   1 ;    O42-   C53-   C50-   O43
   182   174   171   190   9   0.00   0.00000   0 ;    O42-   C53-   C50-   O45
   182   174   171   190   9   0.00   4.22584   3 ;    O42-   C53-   C50-   O45
   182   174   171   190   9   180.00   0.08368   1 ;    O42-   C53-   C50-   O45
   184   171   190   191   9   0.00   5.18816   2 ;    O43-   C50-   O45-   C55
   184   171   190   191   9   180.00   0.00000   3 ;    O43-   C50-   O45-   C55
   184   171   190   191   9   180.00   4.05848   1 ;    O43-   C50-   O45-   C55
   184   172   185   186   9   0.00   0.00000   0 ;    O43-   C51-   C54-   H89
   184   172   185   186   9   0.00   1.04600   1 ;    O43-   C51-   C54-   H89
   184   172   185   187   9   0.00   0.00000   0 ;    O43-   C51-   C54-   H90
   184   172   185   187   9   0.00   1.04600   1 ;    O43-   C51-   C54-   H90
   184   172   185   188   9   0.00   0.00000   0 ;    O43-   C51-   C54-   O44
   184   172   185   188   9   0.00   4.22584   3 ;    O43-   C51-   C54-   O44
   184   172   185   188   9   180.00   0.08368   1 ;    O43-   C51-   C54-   O44
   186   185   188   189   9   0.00   0.47279   3 ;    H89-   C54-   O44-   H91
   187   185   188   189   9   0.00   0.47279   3 ;    H90-   C54-   O44-   H91
   190   191   193   192   9   0.00   0.65084   3 ;    O45-   C55-   C57-   C56
   190   191   193   196   9   0.00   0.00000   0 ;    O45-   C55-   C57-   H92
   190   191   193   196   9   0.00   1.04600   1 ;    O45-   C55-   C57-   H92
   190   191   193   209   9   0.00   0.00000   0 ;    O45-   C55-   C57-   O49
   190   191   193   209   9   0.00   4.22584   3 ;    O45-   C55-   C57-   O49
   190   191   193   209   9   180.00   0.08368   1 ;    O45-   C55-   C57-   O49
   190   191   194   198   9   0.00   0.00000   0 ;    O45-   C55-   C58-   H94
   190   191   194   198   9   0.00   1.04600   1 ;    O45-   C55-   C58-   H94
   190   191   194   201   9   0.00   0.00000   0 ;    O45-   C55-   C58-   O46
   190   191   194   201   9   180.00   0.00000   2 ;    O45-   C55-   C58-   O46
   190   191   194   201   9   180.00   0.71128   1 ;    O45-   C55-   C58-   O46
   190   191   194   202   9   0.00   0.65084   3 ;    O45-   C55-   C58-   C60
   191   193   192   195   9   0.00   0.46024   1 ;    C55-   C57-   C56-   C59
   191   193   192   195   9   0.00   0.54392   3 ;    C55-   C57-   C56-   C59
   191   193   192   195   9   180.00   1.21336   2 ;    C55-   C57-   C56-   C59
   191   193   192   197   9   0.00   0.65084   3 ;    C55-   C57-   C56-   H93
   191   193   192   207   9   0.00   0.87864   3 ;    C55-   C57-   C56-   O48
   191   193   209   210   9   0.00   0.00000   0 ;    C55-   C57-   O49-  H101
   191   194   201   195   9   0.00   0.00000   0 ;    C55-   C58-   O46-   C59
   191   194   201   195   9   0.00   0.66944   2 ;    C55-   C58-   O46-   C59
   191   194   201   195   9   0.00   1.00416   3 ;    C55-   C58-   O46-   C59
   191   194   202   203   9   0.00   0.65084   3 ;    C55-   C58-   C60-   H97
   191   194   202   204   9   0.00   0.65084   3 ;    C55-   C58-   C60-   H98
   191   194   202   205   9   0.00   0.87864   3 ;    C55-   C58-   C60-   O47
   192   193   191   194   9   0.00   0.46024   1 ;    C56-   C57-   C55-   C58
   192   193   191   194   9   0.00   0.54392   3 ;    C56-   C57-   C55-   C58
   192   193   191   194   9   180.00   1.21336   2 ;    C56-   C57-   C55-   C58
   192   193   191   200   9   0.00   0.65084   3 ;    C56-   C57-   C55-   H96
   192   193   209   210   9   0.00   0.00000   0 ;    C56-   C57-   O49-  H101
   192   195   201   194   9   0.00   0.00000   0 ;    C56-   C59-   O46-   C58
   192   195   201   194   9   0.00   0.66944   2 ;    C56-   C59-   O46-   C58
   192   195   201   194   9   0.00   1.00416   3 ;    C56-   C59-   O46-   C58
   192   195   211   212   9   0.00   0.00000   0 ;    C56-   C59-   O50-  H102
   193   191   194   198   9   0.00   0.65084   3 ;    C57-   C55-   C58-   H94
   193   191   194   201   9   0.00   0.65084   3 ;    C57-   C55-   C58-   O46
   193   191   194   202   9   0.00   0.46024   1 ;    C57-   C55-   C58-   C60
   193   191   194   202   9   0.00   0.54392   3 ;    C57-   C55-   C58-   C60
   193   191   194   202   9   180.00   1.21336   2 ;    C57-   C55-   C58-   C60
   193   192   195   199   9   0.00   0.65084   3 ;    C57-   C56-   C59-   H95
   193   192   195   201   9   0.00   0.65084   3 ;    C57-   C56-   C59-   O46
   193   192   195   211   9   0.00   0.87864   3 ;    C57-   C56-   C59-   O50
   193   192   207   208   9   0.00   0.00000   0 ;    C57-   C56-   O48-  H100
   194   191   193   196   9   0.00   0.65084   3 ;    C58-   C55-   C57-   H92
   194   191   193   209   9   0.00   0.87864   3 ;    C58-   C55-   C57-   O49
   194   201   195   199   9   0.00   1.60387   3 ;    C58-   O46-   C59-   H95
   194   201   195   211   9   0.00   1.60387   3 ;    C58-   O46-   C59-   O50
   194   202   205   206   9   0.00   0.00000   0 ;    C58-   C60-   O47-   H99
   195   192   193   196   9   0.00   0.65084   3 ;    C59-   C56-   C57-   H92
   195   192   193   209   9   0.00   0.87864   3 ;    C59-   C56-   C57-   O49
   195   192   207   208   9   0.00   0.00000   0 ;    C59-   C56-   O48-  H100
   195   201   194   198   9   0.00   1.41001   3 ;    C59-   O46-   C58-   H94
   195   201   194   202   9   0.00   0.00000   0 ;    C59-   O46-   C58-   C60
   195   201   194   202   9   0.00   0.66944   2 ;    C59-   O46-   C58-   C60
   195   201   194   202   9   0.00   1.00416   3 ;    C59-   O46-   C58-   C60
   196   193   191   200   9   0.00   0.65084   3 ;    H92-   C57-   C55-   H96
   196   193   192   197   9   0.00   0.65084   3 ;    H92-   C57-   C56-   H93
   196   193   192   207   9   0.00   0.00000   0 ;    H92-   C57-   C56-   O48
   196   193   192   207   9   0.00   1.04600   1 ;    H92-   C57-   C56-   O48
   196   193   209   210   9   0.00   0.47279   3 ;    H92-   C57-   O49-  H101
   197   192   193   209   9   0.00   0.00000   0 ;    H93-   C56-   C57-   O49
   197   192   193   209   9   0.00   1.04600   1 ;    H93-   C56-   C57-   O49
   197   192   195   199   9   0.00   0.65084   3 ;    H93-   C56-   C59-   H95
   197   192   195   201   9   0.00   0.00000   0 ;    H93-   C56-   C59-   O46
   197   192   195   201   9   0.00   1.04600   1 ;    H93-   C56-   C59-   O46
   197   192   195   211   9   0.00   0.00000   0 ;    H93-   C56-   C59-   O50
   197   192   195   211   9   0.00   1.04600   1 ;    H93-   C56-   C59-   O50
   197   192   207   208   9   0.00   0.47279   3 ;    H93-   C56-   O48-  H100
   198   194   191   200   9   0.00   0.65084   3 ;    H94-   C58-   C55-   H96
   198   194   202   203   9   0.00   0.65084   3 ;    H94-   C58-   C60-   H97
   198   194   202   204   9   0.00   0.65084   3 ;    H94-   C58-   C60-   H98
   198   194   202   205   9   0.00   0.00000   0 ;    H94-   C58-   C60-   O47
   198   194   202   205   9   0.00   1.04600   1 ;    H94-   C58-   C60-   O47
   199   195   192   207   9   0.00   0.65084   3 ;    H95-   C59-   C56-   O48
   199   195   211   212   9   0.00   0.69733   3 ;    H95-   C59-   O50-  H102
   200   191   193   209   9   0.00   0.00000   0 ;    H96-   C55-   C57-   O49
   200   191   193   209   9   0.00   1.04600   1 ;    H96-   C55-   C57-   O49
   200   191   194   201   9   0.00   0.00000   0 ;    H96-   C55-   C58-   O46
   200   191   194   201   9   0.00   1.04600   1 ;    H96-   C55-   C58-   O46
   200   191   194   202   9   0.00   0.65084   3 ;    H96-   C55-   C58-   C60
   201   194   202   203   9   0.00   0.00000   0 ;    O46-   C58-   C60-   H97
   201   194   202   203   9   0.00   1.04600   1 ;    O46-   C58-   C60-   H97
   201   194   202   204   9   0.00   0.00000   0 ;    O46-   C58-   C60-   H98
   201   194   202   204   9   0.00   1.04600   1 ;    O46-   C58-   C60-   H98
   201   194   202   205   9   0.00   0.00000   0 ;    O46-   C58-   C60-   O47
   201   194   202   205   9   0.00   4.22584   3 ;    O46-   C58-   C60-   O47
   201   194   202   205   9   180.00   0.08368   1 ;    O46-   C58-   C60-   O47
   201   195   192   207   9   0.00   0.00000   0 ;    O46-   C59-   C56-   O48
   201   195   192   207   9   0.00   4.22584   3 ;    O46-   C59-   C56-   O48
   201   195   192   207   9   180.00   0.08368   1 ;    O46-   C59-   C56-   O48
   201   195   211   212   9   0.00   0.69733   3 ;    O46-   C59-   O50-  H102
   203   202   205   206   9   0.00   0.47279   3 ;    H97-   C60-   O47-   H99
   204   202   205   206   9   0.00   0.47279   3 ;    H98-   C60-   O47-   H99
   207   192   193   209   9   0.00   3.76560   3 ;    O48-   C56-   C57-   O49
   207   192   193   209   9   0.00   4.72792   2 ;    O48-   C56-   C57-   O49
   207   192   195   211   9   0.00   3.76560   3 ;    O48-   C56-   C59-   O50
   207   192   195   211   9   0.00   4.72792   2 ;    O48-   C56-   C59-   O50
   213   214   216   223   9   0.00   0.65084   3 ;     H1-    C1-    C3-    H6
   213   214   216   228   9   0.00   0.00000   0 ;     H1-    C1-    C3-    O3
   213   214   216   228   9   0.00   1.04600   1 ;     H1-    C1-    C3-    O3
   213   214   216   229   9   0.00   0.33472   3 ;     H1-    C1-    C3-    C6
   213   214   217   218   9   0.00   0.33472   3 ;     H1-    C1-    C4-    C5
   213   214   217   221   9   0.00   0.65084   3 ;     H1-    C1-    C4-    H4
   213   214   217   224   9   0.00   0.75312   3 ;     H1-    C1-    C4-    O1
   213   214   217   224   9   0.00   2.13384   1 ;     H1-    C1-    C4-    O1
   214   216   228   215   9   0.00   0.00000   0 ;     C1-    C3-    O3-    C2
   214   216   228   215   9   0.00   0.66944   2 ;     C1-    C3-    O3-    C2
   214   216   228   215   9   0.00   1.00416   3 ;     C1-    C3-    O3-    C2
   214   216   229   230   9   0.00   0.65084   3 ;     C1-    C3-    C6-    H9
   214   216   229   231   9   0.00   0.65084   3 ;     C1-    C3-    C6-   H10
   214   216   229   232   9   0.00   0.87864   3 ;     C1-    C3-    C6-    O4
   214   217   218   215   9   0.00   0.46024   1 ;     C1-    C4-    C5-    C2
   214   217   218   215   9   0.00   0.54392   3 ;     C1-    C4-    C5-    C2
   214   217   218   215   9   180.00   1.21336   2 ;     C1-    C4-    C5-    C2
   214   217   218   222   9   0.00   0.65084   3 ;     C1-    C4-    C5-    H5
   214   217   218   226   9   0.00   0.87864   3 ;     C1-    C4-    C5-    O2
   214   217   224   225   9   0.00   0.00000   0 ;     C1-    C4-    O1-    H7
   215   218   217   221   9   0.00   0.65084   3 ;     C2-    C5-    C4-    H4
   215   218   217   224   9   0.00   0.87864   3 ;     C2-    C5-    C4-    O1
   215   218   226   227   9   0.00   0.00000   0 ;     C2-    C5-    O2-    H8
   215   228   216   223   9   0.00   1.41001   3 ;     C2-    O3-    C3-    H6
   215   228   216   229   9   0.00   0.00000   0 ;     C2-    O3-    C3-    C6
   215   228   216   229   9   0.00   0.66944   2 ;     C2-    O3-    C3-    C6
   215   228   216   229   9   0.00   1.00416   3 ;     C2-    O3-    C3-    C6
   215   234   235   237   9   0.00   0.00000   0 ;     C2-    O5-    C7-    C9
   215   234   235   237   9   0.00   0.66944   2 ;     C2-    O5-    C7-    C9
   215   234   235   237   9   0.00   1.00416   3 ;     C2-    O5-    C7-    C9
   215   234   235   238   9   0.00   0.00000   0 ;     C2-    O5-    C7-   C10
   215   234   235   238   9   0.00   0.66944   2 ;     C2-    O5-    C7-   C10
   215   234   235   238   9   0.00   1.00416   3 ;     C2-    O5-    C7-   C10
   215   234   235   244   9   0.00   1.41001   3 ;     C2-    O5-    C7-   H16
   216   214   217   218   9   0.00   0.46024   1 ;     C3-    C1-    C4-    C5
   216   214   217   218   9   0.00   0.54392   3 ;     C3-    C1-    C4-    C5
   216   214   217   218   9   180.00   1.21336   2 ;     C3-    C1-    C4-    C5
   216   214   217   221   9   0.00   0.65084   3 ;     C3-    C1-    C4-    H4
   216   214   217   224   9   0.00   0.87864   3 ;     C3-    C1-    C4-    O1
   216   228   215   218   9   0.00   0.00000   0 ;     C3-    O3-    C2-    C5
   216   228   215   218   9   0.00   0.66944   2 ;     C3-    O3-    C2-    C5
   216   228   215   218   9   0.00   1.00416   3 ;     C3-    O3-    C2-    C5
   216   228   215   219   9   0.00   1.60387   3 ;     C3-    O3-    C2-    H2
   216   228   215   234   9   0.00   5.18816   2 ;     C3-    O3-    C2-    O5
   216   228   215   234   9   180.00   0.00000   3 ;     C3-    O3-    C2-    O5
   216   228   215   234   9   180.00   4.05848   1 ;     C3-    O3-    C2-    O5
   216   229   232   233   9   0.00   0.00000   0 ;     C3-    C6-    O4-   H11
   217   214   216   223   9   0.00   0.65084   3 ;     C4-    C1-    C3-    H6
   217   214   216   228   9   0.00   0.65084   3 ;     C4-    C1-    C3-    O3
   217   214   216   229   9   0.00   0.46024   1 ;     C4-    C1-    C3-    C6
   217   214   216   229   9   0.00   0.54392   3 ;     C4-    C1-    C3-    C6
   217   214   216   229   9   180.00   1.21336   2 ;     C4-    C1-    C3-    C6
   217   218   215   219   9   0.00   0.65084   3 ;     C4-    C5-    C2-    H2
   217   218   215   228   9   0.00   0.65084   3 ;     C4-    C5-    C2-    O3
   217   218   215   234   9   0.00   0.65084   3 ;     C4-    C5-    C2-    O5
   217   218   226   227   9   0.00   0.00000   0 ;     C4-    C5-    O2-    H8
   218   215   234   235   9   0.00   0.00000   0 ;     C5-    C2-    O5-    C7
   218   215   234   235   9   0.00   0.66944   2 ;     C5-    C2-    O5-    C7
   218   215   234   235   9   0.00   1.00416   3 ;     C5-    C2-    O5-    C7
   218   217   214   220   9   0.00   0.33472   3 ;     C5-    C4-    C1-    H3
   218   217   224   225   9   0.00   0.00000   0 ;     C5-    C4-    O1-    H7
   219   215   218   222   9   0.00   0.65084   3 ;     H2-    C2-    C5-    H5
   219   215   218   226   9   0.00   0.65084   3 ;     H2-    C2-    C5-    O2
   219   215   234   235   9   0.00   1.60387   3 ;     H2-    C2-    O5-    C7
   220   214   216   223   9   0.00   0.65084   3 ;     H3-    C1-    C3-    H6
   220   214   216   228   9   0.00   0.00000   0 ;     H3-    C1-    C3-    O3
   220   214   216   228   9   0.00   1.04600   1 ;     H3-    C1-    C3-    O3
   220   214   216   229   9   0.00   0.33472   3 ;     H3-    C1-    C3-    C6
   220   214   217   221   9   0.00   0.65084   3 ;     H3-    C1-    C4-    H4
   220   214   217   224   9   0.00   0.75312   3 ;     H3-    C1-    C4-    O1
   220   214   217   224   9   0.00   2.13384   1 ;     H3-    C1-    C4-    O1
   221   217   218   222   9   0.00   0.65084   3 ;     H4-    C4-    C5-    H5
   221   217   218   226   9   0.00   0.00000   0 ;     H4-    C4-    C5-    O2
   221   217   218   226   9   0.00   1.04600   1 ;     H4-    C4-    C5-    O2
   221   217   224   225   9   0.00   0.47279   3 ;     H4-    C4-    O1-    H7
   222   218   215   228   9   0.00   0.00000   0 ;     H5-    C5-    C2-    O3
   222   218   215   228   9   0.00   1.04600   1 ;     H5-    C5-    C2-    O3
   222   218   215   234   9   0.00   0.00000   0 ;     H5-    C5-    C2-    O5
   222   218   215   234   9   0.00   1.04600   1 ;     H5-    C5-    C2-    O5
   222   218   217   224   9   0.00   0.00000   0 ;     H5-    C5-    C4-    O1
   222   218   217   224   9   0.00   1.04600   1 ;     H5-    C5-    C4-    O1
   222   218   226   227   9   0.00   0.47279   3 ;     H5-    C5-    O2-    H8
   223   216   229   230   9   0.00   0.65084   3 ;     H6-    C3-    C6-    H9
   223   216   229   231   9   0.00   0.65084   3 ;     H6-    C3-    C6-   H10
   223   216   229   232   9   0.00   0.00000   0 ;     H6-    C3-    C6-    O4
   223   216   229   232   9   0.00   1.04600   1 ;     H6-    C3-    C6-    O4
   224   217   218   226   9   0.00   3.76560   3 ;     O1-    C4-    C5-    O2
   224   217   218   226   9   0.00   4.72792   2 ;     O1-    C4-    C5-    O2
   226   218   215   228   9   0.00   0.00000   0 ;     O2-    C5-    C2-    O3
   226   218   215   228   9   0.00   4.22584   3 ;     O2-    C5-    C2-    O3
   226   218   215   228   9   180.00   0.08368   1 ;     O2-    C5-    C2-    O3
   226   218   215   234   9   0.00   0.00000   0 ;     O2-    C5-    C2-    O5
   226   218   215   234   9   0.00   4.22584   3 ;     O2-    C5-    C2-    O5
   226   218   215   234   9   180.00   0.08368   1 ;     O2-    C5-    C2-    O5
   228   215   234   235   9   0.00   5.18816   2 ;     O3-    C2-    O5-    C7
   228   215   234   235   9   180.00   0.00000   3 ;     O3-    C2-    O5-    C7
   228   215   234   235   9   180.00   4.05848   1 ;     O3-    C2-    O5-    C7
   228   216   229   230   9   0.00   0.00000   0 ;     O3-    C3-    C6-    H9
   228   216   229   230   9   0.00   1.04600   1 ;     O3-    C3-    C6-    H9
   228   216   229   231   9   0.00   0.00000   0 ;     O3-    C3-    C6-   H10
   228   216   229   231   9   0.00   1.04600   1 ;     O3-    C3-    C6-   H10
   228   216   229   232   9   0.00   0.00000   0 ;     O3-    C3-    C6-    O4
   228   216   229   232   9   0.00   4.22584   3 ;     O3-    C3-    C6-    O4
   228   216   229   232   9   180.00   0.08368   1 ;     O3-    C3-    C6-    O4
   230   229   232   233   9   0.00   0.47279   3 ;     H9-    C6-    O4-   H11
   231   229   232   233   9   0.00   0.47279   3 ;    H10-    C6-    O4-   H11
   234   235   237   236   9   0.00   0.65084   3 ;     O5-    C7-    C9-    C8
   234   235   237   240   9   0.00   0.00000   0 ;     O5-    C7-    C9-   H12
   234   235   237   240   9   0.00   1.04600   1 ;     O5-    C7-    C9-   H12
   234   235   237   253   9   0.00   0.00000   0 ;     O5-    C7-    C9-    O9
   234   235   237   253   9   0.00   4.22584   3 ;     O5-    C7-    C9-    O9
   234   235   237   253   9   180.00   0.08368   1 ;     O5-    C7-    C9-    O9
   234   235   238   242   9   0.00   0.00000   0 ;     O5-    C7-   C10-   H14
   234   235   238   242   9   0.00   1.04600   1 ;     O5-    C7-   C10-   H14
   234   235   238   245   9   0.00   0.00000   0 ;     O5-    C7-   C10-    O6
   234   235   238   245   9   180.00   0.00000   2 ;     O5-    C7-   C10-    O6
   234   235   238   245   9   180.00   0.71128   1 ;     O5-    C7-   C10-    O6
   234   235   238   246   9   0.00   0.65084   3 ;     O5-    C7-   C10-   C12
   235   237   236   239   9   0.00   0.46024   1 ;     C7-    C9-    C8-   C11
   235   237   236   239   9   0.00   0.54392   3 ;     C7-    C9-    C8-   C11
   235   237   236   239   9   180.00   1.21336   2 ;     C7-    C9-    C8-   C11
   235   237   236   241   9   0.00   0.65084   3 ;     C7-    C9-    C8-   H13
   235   237   236   251   9   0.00   0.87864   3 ;     C7-    C9-    C8-    O8
   235   237   253   254   9   0.00   0.00000   0 ;     C7-    C9-    O9-   H21
   235   238   245   239   9   0.00   0.00000   0 ;     C7-   C10-    O6-   C11
   235   238   245   239   9   0.00   0.66944   2 ;     C7-   C10-    O6-   C11
   235   238   245   239   9   0.00   1.00416   3 ;     C7-   C10-    O6-   C11
   235   238   246   247   9   0.00   0.65084   3 ;     C7-   C10-   C12-   H17
   235   238   246   248   9   0.00   0.65084   3 ;     C7-   C10-   C12-   H18
   235   238   246   249   9   0.00   0.87864   3 ;     C7-   C10-   C12-    O7
   236   237   235   238   9   0.00   0.46024   1 ;     C8-    C9-    C7-   C10
   236   237   235   238   9   0.00   0.54392   3 ;     C8-    C9-    C7-   C10
   236   237   235   238   9   180.00   1.21336   2 ;     C8-    C9-    C7-   C10
   236   237   235   244   9   0.00   0.65084   3 ;     C8-    C9-    C7-   H16
   236   237   253   254   9   0.00   0.00000   0 ;     C8-    C9-    O9-   H21
   236   239   245   238   9   0.00   0.00000   0 ;     C8-   C11-    O6-   C10
   236   239   245   238   9   0.00   0.66944   2 ;     C8-   C11-    O6-   C10
   236   239   245   238   9   0.00   1.00416   3 ;     C8-   C11-    O6-   C10
   236   239   255   256   9   0.00   0.00000   0 ;     C8-   C11-   O10-   C13
   236   239   255   256   9   0.00   0.66944   2 ;     C8-   C11-   O10-   C13
   236   239   255   256   9   0.00   1.00416   3 ;     C8-   C11-   O10-   C13
   237   235   238   242   9   0.00   0.65084   3 ;     C9-    C7-   C10-   H14
   237   235   238   245   9   0.00   0.65084   3 ;     C9-    C7-   C10-    O6
   237   235   238   246   9   0.00   0.46024   1 ;     C9-    C7-   C10-   C12
   237   235   238   246   9   0.00   0.54392   3 ;     C9-    C7-   C10-   C12
   237   235   238   246   9   180.00   1.21336   2 ;     C9-    C7-   C10-   C12
   237   236   239   243   9   0.00   0.65084   3 ;     C9-    C8-   C11-   H15
   237   236   239   245   9   0.00   0.65084   3 ;     C9-    C8-   C11-    O6
   237   236   239   255   9   0.00   0.65084   3 ;     C9-    C8-   C11-   O10
   237   236   251   252   9   0.00   0.00000   0 ;     C9-    C8-    O8-   H20
   238   235   237   240   9   0.00   0.65084   3 ;    C10-    C7-    C9-   H12
   238   235   237   253   9   0.00   0.87864   3 ;    C10-    C7-    C9-    O9
   238   245   239   243   9   0.00   1.60387   3 ;    C10-    O6-   C11-   H15
   238   245   239   255   9   0.00   5.18816   2 ;    C10-    O6-   C11-   O10
   238   245   239   255   9   180.00   0.00000   3 ;    C10-    O6-   C11-   O10
   238   245   239   255   9   180.00   4.05848   1 ;    C10-    O6-   C11-   O10
   238   246   249   250   9   0.00   0.00000   0 ;    C10-   C12-    O7-   H19
   239   236   237   240   9   0.00   0.65084   3 ;    C11-    C8-    C9-   H12
   239   236   237   253   9   0.00   0.87864   3 ;    C11-    C8-    C9-    O9
   239   236   251   252   9   0.00   0.00000   0 ;    C11-    C8-    O8-   H20
   239   245   238   242   9   0.00   1.41001   3 ;    C11-    O6-   C10-   H14
   239   245   238   246   9   0.00   0.00000   0 ;    C11-    O6-   C10-   C12
   239   245   238   246   9   0.00   0.66944   2 ;    C11-    O6-   C10-   C12
   239   245   238   246   9   0.00   1.00416   3 ;    C11-    O6-   C10-   C12
   239   255   256   258   9   0.00   0.00000   0 ;    C11-   O10-   C13-   C15
   239   255   256   258   9   0.00   0.66944   2 ;    C11-   O10-   C13-   C15
   239   255   256   258   9   0.00   1.00416   3 ;    C11-   O10-   C13-   C15
   239   255   256   259   9   0.00   0.00000   0 ;    C11-   O10-   C13-   C16
   239   255   256   259   9   0.00   0.66944   2 ;    C11-   O10-   C13-   C16
   239   255   256   259   9   0.00   1.00416   3 ;    C11-   O10-   C13-   C16
   239   255   256   262   9   0.00   1.41001   3 ;    C11-   O10-   C13-   H23
   240   237   235   244   9   0.00   0.65084   3 ;    H12-    C9-    C7-   H16
   240   237   236   241   9   0.00   0.65084   3 ;    H12-    C9-    C8-   H13
   240   237   236   251   9   0.00   0.00000   0 ;    H12-    C9-    C8-    O8
   240   237   236   251   9   0.00   1.04600   1 ;    H12-    C9-    C8-    O8
   240   237   253   254   9   0.00   0.47279   3 ;    H12-    C9-    O9-   H21
   241   236   237   253   9   0.00   0.00000   0 ;    H13-    C8-    C9-    O9
   241   236   237   253   9   0.00   1.04600   1 ;    H13-    C8-    C9-    O9
   241   236   239   243   9   0.00   0.65084   3 ;    H13-    C8-   C11-   H15
   241   236   239   245   9   0.00   0.00000   0 ;    H13-    C8-   C11-    O6
   241   236   239   245   9   0.00   1.04600   1 ;    H13-    C8-   C11-    O6
   241   236   239   255   9   0.00   0.00000   0 ;    H13-    C8-   C11-   O10
   241   236   239   255   9   0.00   1.04600   1 ;    H13-    C8-   C11-   O10
   241   236   251   252   9   0.00   0.47279   3 ;    H13-    C8-    O8-   H20
   242   238   235   244   9   0.00   0.65084   3 ;    H14-   C10-    C7-   H16
   242   238   246   247   9   0.00   0.65084   3 ;    H14-   C10-   C12-   H17
   242   238   246   248   9   0.00   0.65084   3 ;    H14-   C10-   C12-   H18
   242   238   246   249   9   0.00   0.00000   0 ;    H14-   C10-   C12-    O7
   242   238   246   249   9   0.00   1.04600   1 ;    H14-   C10-   C12-    O7
   243   239   236   251   9   0.00   0.65084   3 ;    H15-   C11-    C8-    O8
   243   239   255   256   9   0.00   1.60387   3 ;    H15-   C11-   O10-   C13
   244   235   237   253   9   0.00   0.00000   0 ;    H16-    C7-    C9-    O9
   244   235   237   253   9   0.00   1.04600   1 ;    H16-    C7-    C9-    O9
   244   235   238   245   9   0.00   0.00000   0 ;    H16-    C7-   C10-    O6
   244   235   238   245   9   0.00   1.04600   1 ;    H16-    C7-   C10-    O6
   244   235   238   246   9   0.00   0.65084   3 ;    H16-    C7-   C10-   C12
   245   238   246   247   9   0.00   0.00000   0 ;     O6-   C10-   C12-   H17
   245   238   246   247   9   0.00   1.04600   1 ;     O6-   C10-   C12-   H17
   245   238   246   248   9   0.00   0.00000   0 ;     O6-   C10-   C12-   H18
   245   238   246   248   9   0.00   1.04600   1 ;     O6-   C10-   C12-   H18
   245   238   246   249   9   0.00   0.00000   0 ;     O6-   C10-   C12-    O7
   245   238   246   249   9   0.00   4.22584   3 ;     O6-   C10-   C12-    O7
   245   238   246   249   9   180.00   0.08368   1 ;     O6-   C10-   C12-    O7
   245   239   236   251   9   0.00   0.00000   0 ;     O6-   C11-    C8-    O8
   245   239   236   251   9   0.00   4.22584   3 ;     O6-   C11-    C8-    O8
   245   239   236   251   9   180.00   0.08368   1 ;     O6-   C11-    C8-    O8
   245   239   255   256   9   0.00   5.18816   2 ;     O6-   C11-   O10-   C13
   245   239   255   256   9   180.00   0.00000   3 ;     O6-   C11-   O10-   C13
   245   239   255   256   9   180.00   4.05848   1 ;     O6-   C11-   O10-   C13
   247   246   249   250   9   0.00   0.47279   3 ;    H17-   C12-    O7-   H19
   248   246   249   250   9   0.00   0.47279   3 ;    H18-   C12-    O7-   H19
   251   236   237   253   9   0.00   3.76560   3 ;     O8-    C8-    C9-    O9
   251   236   237   253   9   0.00   4.72792   2 ;     O8-    C8-    C9-    O9
   251   236   239   255   9   0.00   0.00000   0 ;     O8-    C8-   C11-   O10
   251   236   239   255   9   0.00   4.22584   3 ;     O8-    C8-   C11-   O10
   251   236   239   255   9   180.00   0.08368   1 ;     O8-    C8-   C11-   O10
   255   256   258   265   9   0.00   0.00000   0 ;    O10-   C13-   C15-   H26
   255   256   258   265   9   0.00   1.04600   1 ;    O10-   C13-   C15-   H26
   255   256   258   270   9   0.00   0.00000   0 ;    O10-   C13-   C15-   O13
   255   256   258   270   9   180.00   0.00000   2 ;    O10-   C13-   C15-   O13
   255   256   258   270   9   180.00   0.71128   1 ;    O10-   C13-   C15-   O13
   255   256   258   271   9   0.00   0.65084   3 ;    O10-   C13-   C15-   C18
   255   256   259   260   9   0.00   0.65084   3 ;    O10-   C13-   C16-   C17
   255   256   259   263   9   0.00   0.00000   0 ;    O10-   C13-   C16-   H24
   255   256   259   263   9   0.00   1.04600   1 ;    O10-   C13-   C16-   H24
   255   256   259   266   9   0.00   0.00000   0 ;    O10-   C13-   C16-   O11
   255   256   259   266   9   0.00   4.22584   3 ;    O10-   C13-   C16-   O11
   255   256   259   266   9   180.00   0.08368   1 ;    O10-   C13-   C16-   O11
   256   258   270   257   9   0.00   0.00000   0 ;    C13-   C15-   O13-   C14
   256   258   270   257   9   0.00   0.66944   2 ;    C13-   C15-   O13-   C14
   256   258   270   257   9   0.00   1.00416   3 ;    C13-   C15-   O13-   C14
   256   258   271   272   9   0.00   0.65084   3 ;    C13-   C15-   C18-   H29
   256   258   271   273   9   0.00   0.65084   3 ;    C13-   C15-   C18-   H30
   256   258   271   274   9   0.00   0.87864   3 ;    C13-   C15-   C18-   O14
   256   259   260   257   9   0.00   0.46024   1 ;    C13-   C16-   C17-   C14
   256   259   260   257   9   0.00   0.54392   3 ;    C13-   C16-   C17-   C14
   256   259   260   257   9   180.00   1.21336   2 ;    C13-   C16-   C17-   C14
   256   259   260   264   9   0.00   0.65084   3 ;    C13-   C16-   C17-   H25
   256   259   260   268   9   0.00   0.87864   3 ;    C13-   C16-   C17-   O12
   256   259   266   267   9   0.00   0.00000   0 ;    C13-   C16-   O11-   H27
   257   260   259   263   9   0.00   0.65084   3 ;    C14-   C17-   C16-   H24
   257   260   259   266   9   0.00   0.87864   3 ;    C14-   C17-   C16-   O11
   257   260   268   269   9   0.00   0.00000   0 ;    C14-   C17-   O12-   H28
   257   270   258   265   9   0.00   1.41001   3 ;    C14-   O13-   C15-   H26
   257   270   258   271   9   0.00   0.00000   0 ;    C14-   O13-   C15-   C18
   257   270   258   271   9   0.00   0.66944   2 ;    C14-   O13-   C15-   C18
   257   270   258   271   9   0.00   1.00416   3 ;    C14-   O13-   C15-   C18
   257   276   277   279   9   0.00   0.00000   0 ;    C14-   O15-   C19-   C21
   257   276   277   279   9   0.00   0.66944   2 ;    C14-   O15-   C19-   C21
   257   276   277   279   9   0.00   1.00416   3 ;    C14-   O15-   C19-   C21
   257   276   277   280   9   0.00   0.00000   0 ;    C14-   O15-   C19-   C22
   257   276   277   280   9   0.00   0.66944   2 ;    C14-   O15-   C19-   C22
   257   276   277   280   9   0.00   1.00416   3 ;    C14-   O15-   C19-   C22
   257   276   277   286   9   0.00   1.41001   3 ;    C14-   O15-   C19-   H36
   258   256   259   260   9   0.00   0.46024   1 ;    C15-   C13-   C16-   C17
   258   256   259   260   9   0.00   0.54392   3 ;    C15-   C13-   C16-   C17
   258   256   259   260   9   180.00   1.21336   2 ;    C15-   C13-   C16-   C17
   258   256   259   263   9   0.00   0.65084   3 ;    C15-   C13-   C16-   H24
   258   256   259   266   9   0.00   0.87864   3 ;    C15-   C13-   C16-   O11
   258   270   257   260   9   0.00   0.00000   0 ;    C15-   O13-   C14-   C17
   258   270   257   260   9   0.00   0.66944   2 ;    C15-   O13-   C14-   C17
   258   270   257   260   9   0.00   1.00416   3 ;    C15-   O13-   C14-   C17
   258   270   257   261   9   0.00   1.60387   3 ;    C15-   O13-   C14-   H22
   258   270   257   276   9   0.00   5.18816   2 ;    C15-   O13-   C14-   O15
   258   270   257   276   9   180.00   0.00000   3 ;    C15-   O13-   C14-   O15
   258   270   257   276   9   180.00   4.05848   1 ;    C15-   O13-   C14-   O15
   258   271   274   275   9   0.00   0.00000   0 ;    C15-   C18-   O14-   H31
   259   256   258   265   9   0.00   0.65084   3 ;    C16-   C13-   C15-   H26
   259   256   258   270   9   0.00   0.65084   3 ;    C16-   C13-   C15-   O13
   259   256   258   271   9   0.00   0.46024   1 ;    C16-   C13-   C15-   C18
   259   256   258   271   9   0.00   0.54392   3 ;    C16-   C13-   C15-   C18
   259   256   258   271   9   180.00   1.21336   2 ;    C16-   C13-   C15-   C18
   259   260   257   261   9   0.00   0.65084   3 ;    C16-   C17-   C14-   H22
   259   260   257   270   9   0.00   0.65084   3 ;    C16-   C17-   C14-   O13
   259   260   257   276   9   0.00   0.65084   3 ;    C16-   C17-   C14-   O15
   259   260   268   269   9   0.00   0.00000   0 ;    C16-   C17-   O12-   H28
   260   257   276   277   9   0.00   0.00000   0 ;    C17-   C14-   O15-   C19
   260   257   276   277   9   0.00   0.66944   2 ;    C17-   C14-   O15-   C19
   260   257   276   277   9   0.00   1.00416   3 ;    C17-   C14-   O15-   C19
   260   259   256   262   9   0.00   0.65084   3 ;    C17-   C16-   C13-   H23
   260   259   266   267   9   0.00   0.00000   0 ;    C17-   C16-   O11-   H27
   261   257   260   264   9   0.00   0.65084   3 ;    H22-   C14-   C17-   H25
   261   257   260   268   9   0.00   0.65084   3 ;    H22-   C14-   C17-   O12
   261   257   276   277   9   0.00   1.60387   3 ;    H22-   C14-   O15-   C19
   262   256   258   265   9   0.00   0.65084   3 ;    H23-   C13-   C15-   H26
   262   256   258   270   9   0.00   0.00000   0 ;    H23-   C13-   C15-   O13
   262   256   258   270   9   0.00   1.04600   1 ;    H23-   C13-   C15-   O13
   262   256   258   271   9   0.00   0.65084   3 ;    H23-   C13-   C15-   C18
   262   256   259   263   9   0.00   0.65084   3 ;    H23-   C13-   C16-   H24
   262   256   259   266   9   0.00   0.00000   0 ;    H23-   C13-   C16-   O11
   262   256   259   266   9   0.00   1.04600   1 ;    H23-   C13-   C16-   O11
   263   259   260   264   9   0.00   0.65084   3 ;    H24-   C16-   C17-   H25
   263   259   260   268   9   0.00   0.00000   0 ;    H24-   C16-   C17-   O12
   263   259   260   268   9   0.00   1.04600   1 ;    H24-   C16-   C17-   O12
   263   259   266   267   9   0.00   0.47279   3 ;    H24-   C16-   O11-   H27
   264   260   257   270   9   0.00   0.00000   0 ;    H25-   C17-   C14-   O13
   264   260   257   270   9   0.00   1.04600   1 ;    H25-   C17-   C14-   O13
   264   260   257   276   9   0.00   0.00000   0 ;    H25-   C17-   C14-   O15
   264   260   257   276   9   0.00   1.04600   1 ;    H25-   C17-   C14-   O15
   264   260   259   266   9   0.00   0.00000   0 ;    H25-   C17-   C16-   O11
   264   260   259   266   9   0.00   1.04600   1 ;    H25-   C17-   C16-   O11
   264   260   268   269   9   0.00   0.47279   3 ;    H25-   C17-   O12-   H28
   265   258   271   272   9   0.00   0.65084   3 ;    H26-   C15-   C18-   H29
   265   258   271   273   9   0.00   0.65084   3 ;    H26-   C15-   C18-   H30
   265   258   271   274   9   0.00   0.00000   0 ;    H26-   C15-   C18-   O14
   265   258   271   274   9   0.00   1.04600   1 ;    H26-   C15-   C18-   O14
   266   259   260   268   9   0.00   3.76560   3 ;    O11-   C16-   C17-   O12
   266   259   260   268   9   0.00   4.72792   2 ;    O11-   C16-   C17-   O12
   268   260   257   270   9   0.00   0.00000   0 ;    O12-   C17-   C14-   O13
   268   260   257   270   9   0.00   4.22584   3 ;    O12-   C17-   C14-   O13
   268   260   257   270   9   180.00   0.08368   1 ;    O12-   C17-   C14-   O13
   268   260   257   276   9   0.00   0.00000   0 ;    O12-   C17-   C14-   O15
   268   260   257   276   9   0.00   4.22584   3 ;    O12-   C17-   C14-   O15
   268   260   257   276   9   180.00   0.08368   1 ;    O12-   C17-   C14-   O15
   270   257   276   277   9   0.00   5.18816   2 ;    O13-   C14-   O15-   C19
   270   257   276   277   9   180.00   0.00000   3 ;    O13-   C14-   O15-   C19
   270   257   276   277   9   180.00   4.05848   1 ;    O13-   C14-   O15-   C19
   270   258   271   272   9   0.00   0.00000   0 ;    O13-   C15-   C18-   H29
   270   258   271   272   9   0.00   1.04600   1 ;    O13-   C15-   C18-   H29
   270   258   271   273   9   0.00   0.00000   0 ;    O13-   C15-   C18-   H30
   270   258   271   273   9   0.00   1.04600   1 ;    O13-   C15-   C18-   H30
   270   258   271   274   9   0.00   0.00000   0 ;    O13-   C15-   C18-   O14
   270   258   271   274   9   0.00   4.22584   3 ;    O13-   C15-   C18-   O14
   270   258   271   274   9   180.00   0.08368   1 ;    O13-   C15-   C18-   O14
   272   271   274   275   9   0.00   0.47279   3 ;    H29-   C18-   O14-   H31
   273   271   274   275   9   0.00   0.47279   3 ;    H30-   C18-   O14-   H31
   276   277   279   278   9   0.00   0.65084   3 ;    O15-   C19-   C21-   C20
   276   277   279   282   9   0.00   0.00000   0 ;    O15-   C19-   C21-   H32
   276   277   279   282   9   0.00   1.04600   1 ;    O15-   C19-   C21-   H32
   276   277   279   295   9   0.00   0.00000   0 ;    O15-   C19-   C21-   O19
   276   277   279   295   9   0.00   4.22584   3 ;    O15-   C19-   C21-   O19
   276   277   279   295   9   180.00   0.08368   1 ;    O15-   C19-   C21-   O19
   276   277   280   284   9   0.00   0.00000   0 ;    O15-   C19-   C22-   H34
   276   277   280   284   9   0.00   1.04600   1 ;    O15-   C19-   C22-   H34
   276   277   280   287   9   0.00   0.00000   0 ;    O15-   C19-   C22-   O16
   276   277   280   287   9   180.00   0.00000   2 ;    O15-   C19-   C22-   O16
   276   277   280   287   9   180.00   0.71128   1 ;    O15-   C19-   C22-   O16
   276   277   280   288   9   0.00   0.65084   3 ;    O15-   C19-   C22-   C24
   277   279   278   281   9   0.00   0.46024   1 ;    C19-   C21-   C20-   C23
   277   279   278   281   9   0.00   0.54392   3 ;    C19-   C21-   C20-   C23
   277   279   278   281   9   180.00   1.21336   2 ;    C19-   C21-   C20-   C23
   277   279   278   283   9   0.00   0.65084   3 ;    C19-   C21-   C20-   H33
   277   279   278   293   9   0.00   0.87864   3 ;    C19-   C21-   C20-   O18
   277   279   295   296   9   0.00   0.00000   0 ;    C19-   C21-   O19-   H41
   277   280   287   281   9   0.00   0.00000   0 ;    C19-   C22-   O16-   C23
   277   280   287   281   9   0.00   0.66944   2 ;    C19-   C22-   O16-   C23
   277   280   287   281   9   0.00   1.00416   3 ;    C19-   C22-   O16-   C23
   277   280   288   289   9   0.00   0.65084   3 ;    C19-   C22-   C24-   H37
   277   280   288   290   9   0.00   0.65084   3 ;    C19-   C22-   C24-   H38
   277   280   288   291   9   0.00   0.87864   3 ;    C19-   C22-   C24-   O17
   278   279   277   280   9   0.00   0.46024   1 ;    C20-   C21-   C19-   C22
   278   279   277   280   9   0.00   0.54392   3 ;    C20-   C21-   C19-   C22
   278   279   277   280   9   180.00   1.21336   2 ;    C20-   C21-   C19-   C22
   278   279   277   286   9   0.00   0.65084   3 ;    C20-   C21-   C19-   H36
   278   279   295   296   9   0.00   0.00000   0 ;    C20-   C21-   O19-   H41
   278   281   287   280   9   0.00   0.00000   0 ;    C20-   C23-   O16-   C22
   278   281   287   280   9   0.00   0.66944   2 ;    C20-   C23-   O16-   C22
   278   281   287   280   9   0.00   1.00416   3 ;    C20-   C23-   O16-   C22
   278   281   297   298   9   0.00   0.00000   0 ;    C20-   C23-   O20-   C25
   278   281   297   298   9   0.00   0.66944   2 ;    C20-   C23-   O20-   C25
   278   281   297   298   9   0.00   1.00416   3 ;    C20-   C23-   O20-   C25
   279   277   280   284   9   0.00   0.65084   3 ;    C21-   C19-   C22-   H34
   279   277   280   287   9   0.00   0.65084   3 ;    C21-   C19-   C22-   O16
   279   277   280   288   9   0.00   0.46024   1 ;    C21-   C19-   C22-   C24
   279   277   280   288   9   0.00   0.54392   3 ;    C21-   C19-   C22-   C24
   279   277   280   288   9   180.00   1.21336   2 ;    C21-   C19-   C22-   C24
   279   278   281   285   9   0.00   0.65084   3 ;    C21-   C20-   C23-   H35
   279   278   281   287   9   0.00   0.65084   3 ;    C21-   C20-   C23-   O16
   279   278   281   297   9   0.00   0.65084   3 ;    C21-   C20-   C23-   O20
   279   278   293   294   9   0.00   0.00000   0 ;    C21-   C20-   O18-   H40
   280   277   279   282   9   0.00   0.65084   3 ;    C22-   C19-   C21-   H32
   280   277   279   295   9   0.00   0.87864   3 ;    C22-   C19-   C21-   O19
   280   287   281   285   9   0.00   1.60387   3 ;    C22-   O16-   C23-   H35
   280   287   281   297   9   0.00   5.18816   2 ;    C22-   O16-   C23-   O20
   280   287   281   297   9   180.00   0.00000   3 ;    C22-   O16-   C23-   O20
   280   287   281   297   9   180.00   4.05848   1 ;    C22-   O16-   C23-   O20
   280   288   291   292   9   0.00   0.00000   0 ;    C22-   C24-   O17-   H39
   281   278   279   282   9   0.00   0.65084   3 ;    C23-   C20-   C21-   H32
   281   278   279   295   9   0.00   0.87864   3 ;    C23-   C20-   C21-   O19
   281   278   293   294   9   0.00   0.00000   0 ;    C23-   C20-   O18-   H40
   281   287   280   284   9   0.00   1.41001   3 ;    C23-   O16-   C22-   H34
   281   287   280   288   9   0.00   0.00000   0 ;    C23-   O16-   C22-   C24
   281   287   280   288   9   0.00   0.66944   2 ;    C23-   O16-   C22-   C24
   281   287   280   288   9   0.00   1.00416   3 ;    C23-   O16-   C22-   C24
   281   297   298   300   9   0.00   0.00000   0 ;    C23-   O20-   C25-   C27
   281   297   298   300   9   0.00   0.66944   2 ;    C23-   O20-   C25-   C27
   281   297   298   300   9   0.00   1.00416   3 ;    C23-   O20-   C25-   C27
   281   297   298   301   9   0.00   0.00000   0 ;    C23-   O20-   C25-   C28
   281   297   298   301   9   0.00   0.66944   2 ;    C23-   O20-   C25-   C28
   281   297   298   301   9   0.00   1.00416   3 ;    C23-   O20-   C25-   C28
   281   297   298   304   9   0.00   1.41001   3 ;    C23-   O20-   C25-   H43
   282   279   277   286   9   0.00   0.65084   3 ;    H32-   C21-   C19-   H36
   282   279   278   283   9   0.00   0.65084   3 ;    H32-   C21-   C20-   H33
   282   279   278   293   9   0.00   0.00000   0 ;    H32-   C21-   C20-   O18
   282   279   278   293   9   0.00   1.04600   1 ;    H32-   C21-   C20-   O18
   282   279   295   296   9   0.00   0.47279   3 ;    H32-   C21-   O19-   H41
   283   278   279   295   9   0.00   0.00000   0 ;    H33-   C20-   C21-   O19
   283   278   279   295   9   0.00   1.04600   1 ;    H33-   C20-   C21-   O19
   283   278   281   285   9   0.00   0.65084   3 ;    H33-   C20-   C23-   H35
   283   278   281   287   9   0.00   0.00000   0 ;    H33-   C20-   C23-   O16
   283   278   281   287   9   0.00   1.04600   1 ;    H33-   C20-   C23-   O16
   283   278   281   297   9   0.00   0.00000   0 ;    H33-   C20-   C23-   O20
   283   278   281   297   9   0.00   1.04600   1 ;    H33-   C20-   C23-   O20
   283   278   293   294   9   0.00   0.47279   3 ;    H33-   C20-   O18-   H40
   284   280   277   286   9   0.00   0.65084   3 ;    H34-   C22-   C19-   H36
   284   280   288   289   9   0.00   0.65084   3 ;    H34-   C22-   C24-   H37
   284   280   288   290   9   0.00   0.65084   3 ;    H34-   C22-   C24-   H38
   284   280   288   291   9   0.00   0.00000   0 ;    H34-   C22-   C24-   O17
   284   280   288   291   9   0.00   1.04600   1 ;    H34-   C22-   C24-   O17
   285   281   278   293   9   0.00   0.65084   3 ;    H35-   C23-   C20-   O18
   285   281   297   298   9   0.00   1.60387   3 ;    H35-   C23-   O20-   C25
   286   277   279   295   9   0.00   0.00000   0 ;    H36-   C19-   C21-   O19
   286   277   279   295   9   0.00   1.04600   1 ;    H36-   C19-   C21-   O19
   286   277   280   287   9   0.00   0.00000   0 ;    H36-   C19-   C22-   O16
   286   277   280   287   9   0.00   1.04600   1 ;    H36-   C19-   C22-   O16
   286   277   280   288   9   0.00   0.65084   3 ;    H36-   C19-   C22-   C24
   287   280   288   289   9   0.00   0.00000   0 ;    O16-   C22-   C24-   H37
   287   280   288   289   9   0.00   1.04600   1 ;    O16-   C22-   C24-   H37
   287   280   288   290   9   0.00   0.00000   0 ;    O16-   C22-   C24-   H38
   287   280   288   290   9   0.00   1.04600   1 ;    O16-   C22-   C24-   H38
   287   280   288   291   9   0.00   0.00000   0 ;    O16-   C22-   C24-   O17
   287   280   288   291   9   0.00   4.22584   3 ;    O16-   C22-   C24-   O17
   287   280   288   291   9   180.00   0.08368   1 ;    O16-   C22-   C24-   O17
   287   281   278   293   9   0.00   0.00000   0 ;    O16-   C23-   C20-   O18
   287   281   278   293   9   0.00   4.22584   3 ;    O16-   C23-   C20-   O18
   287   281   278   293   9   180.00   0.08368   1 ;    O16-   C23-   C20-   O18
   287   281   297   298   9   0.00   5.18816   2 ;    O16-   C23-   O20-   C25
   287   281   297   298   9   180.00   0.00000   3 ;    O16-   C23-   O20-   C25
   287   281   297   298   9   180.00   4.05848   1 ;    O16-   C23-   O20-   C25
   289   288   291   292   9   0.00   0.47279   3 ;    H37-   C24-   O17-   H39
   290   288   291   292   9   0.00   0.47279   3 ;    H38-   C24-   O17-   H39
   293   278   279   295   9   0.00   3.76560   3 ;    O18-   C20-   C21-   O19
   293   278   279   295   9   0.00   4.72792   2 ;    O18-   C20-   C21-   O19
   293   278   281   297   9   0.00   0.00000   0 ;    O18-   C20-   C23-   O20
   293   278   281   297   9   0.00   4.22584   3 ;    O18-   C20-   C23-   O20
   293   278   281   297   9   180.00   0.08368   1 ;    O18-   C20-   C23-   O20
   297   298   300   307   9   0.00   0.00000   0 ;    O20-   C25-   C27-   H46
   297   298   300   307   9   0.00   1.04600   1 ;    O20-   C25-   C27-   H46
   297   298   300   312   9   0.00   0.00000   0 ;    O20-   C25-   C27-   O23
   297   298   300   312   9   180.00   0.00000   2 ;    O20-   C25-   C27-   O23
   297   298   300   312   9   180.00   0.71128   1 ;    O20-   C25-   C27-   O23
   297   298   300   313   9   0.00   0.65084   3 ;    O20-   C25-   C27-   C30
   297   298   301   302   9   0.00   0.65084   3 ;    O20-   C25-   C28-   C29
   297   298   301   305   9   0.00   0.00000   0 ;    O20-   C25-   C28-   H44
   297   298   301   305   9   0.00   1.04600   1 ;    O20-   C25-   C28-   H44
   297   298   301   308   9   0.00   0.00000   0 ;    O20-   C25-   C28-   O21
   297   298   301   308   9   0.00   4.22584   3 ;    O20-   C25-   C28-   O21
   297   298   301   308   9   180.00   0.08368   1 ;    O20-   C25-   C28-   O21
   298   300   312   299   9   0.00   0.00000   0 ;    C25-   C27-   O23-   C26
   298   300   312   299   9   0.00   0.66944   2 ;    C25-   C27-   O23-   C26
   298   300   312   299   9   0.00   1.00416   3 ;    C25-   C27-   O23-   C26
   298   300   313   314   9   0.00   0.65084   3 ;    C25-   C27-   C30-   H49
   298   300   313   315   9   0.00   0.65084   3 ;    C25-   C27-   C30-   H50
   298   300   313   316   9   0.00   0.87864   3 ;    C25-   C27-   C30-   O24
   298   301   302   299   9   0.00   0.46024   1 ;    C25-   C28-   C29-   C26
   298   301   302   299   9   0.00   0.54392   3 ;    C25-   C28-   C29-   C26
   298   301   302   299   9   180.00   1.21336   2 ;    C25-   C28-   C29-   C26
   298   301   302   306   9   0.00   0.65084   3 ;    C25-   C28-   C29-   H45
   298   301   302   310   9   0.00   0.87864   3 ;    C25-   C28-   C29-   O22
   298   301   308   309   9   0.00   0.00000   0 ;    C25-   C28-   O21-   H47
   299   302   301   305   9   0.00   0.65084   3 ;    C26-   C29-   C28-   H44
   299   302   301   308   9   0.00   0.87864   3 ;    C26-   C29-   C28-   O21
   299   302   310   311   9   0.00   0.00000   0 ;    C26-   C29-   O22-   H48
   299   312   300   307   9   0.00   1.41001   3 ;    C26-   O23-   C27-   H46
   299   312   300   313   9   0.00   0.00000   0 ;    C26-   O23-   C27-   C30
   299   312   300   313   9   0.00   0.66944   2 ;    C26-   O23-   C27-   C30
   299   312   300   313   9   0.00   1.00416   3 ;    C26-   O23-   C27-   C30
   299   318   319   321   9   0.00   0.00000   0 ;    C26-   O25-   C31-   C33
   299   318   319   321   9   0.00   0.66944   2 ;    C26-   O25-   C31-   C33
   299   318   319   321   9   0.00   1.00416   3 ;    C26-   O25-   C31-   C33
   299   318   319   322   9   0.00   0.00000   0 ;    C26-   O25-   C31-   C34
   299   318   319   322   9   0.00   0.66944   2 ;    C26-   O25-   C31-   C34
   299   318   319   322   9   0.00   1.00416   3 ;    C26-   O25-   C31-   C34
   299   318   319   328   9   0.00   1.41001   3 ;    C26-   O25-   C31-   H56
   300   298   301   302   9   0.00   0.46024   1 ;    C27-   C25-   C28-   C29
   300   298   301   302   9   0.00   0.54392   3 ;    C27-   C25-   C28-   C29
   300   298   301   302   9   180.00   1.21336   2 ;    C27-   C25-   C28-   C29
   300   298   301   305   9   0.00   0.65084   3 ;    C27-   C25-   C28-   H44
   300   298   301   308   9   0.00   0.87864   3 ;    C27-   C25-   C28-   O21
   300   312   299   302   9   0.00   0.00000   0 ;    C27-   O23-   C26-   C29
   300   312   299   302   9   0.00   0.66944   2 ;    C27-   O23-   C26-   C29
   300   312   299   302   9   0.00   1.00416   3 ;    C27-   O23-   C26-   C29
   300   312   299   303   9   0.00   1.60387   3 ;    C27-   O23-   C26-   H42
   300   312   299   318   9   0.00   5.18816   2 ;    C27-   O23-   C26-   O25
   300   312   299   318   9   180.00   0.00000   3 ;    C27-   O23-   C26-   O25
   300   312   299   318   9   180.00   4.05848   1 ;    C27-   O23-   C26-   O25
   300   313   316   317   9   0.00   0.00000   0 ;    C27-   C30-   O24-   H51
   301   298   300   307   9   0.00   0.65084   3 ;    C28-   C25-   C27-   H46
   301   298   300   312   9   0.00   0.65084   3 ;    C28-   C25-   C27-   O23
   301   298   300   313   9   0.00   0.46024   1 ;    C28-   C25-   C27-   C30
   301   298   300   313   9   0.00   0.54392   3 ;    C28-   C25-   C27-   C30
   301   298   300   313   9   180.00   1.21336   2 ;    C28-   C25-   C27-   C30
   301   302   299   303   9   0.00   0.65084   3 ;    C28-   C29-   C26-   H42
   301   302   299   312   9   0.00   0.65084   3 ;    C28-   C29-   C26-   O23
   301   302   299   318   9   0.00   0.65084   3 ;    C28-   C29-   C26-   O25
   301   302   310   311   9   0.00   0.00000   0 ;    C28-   C29-   O22-   H48
   302   299   318   319   9   0.00   0.00000   0 ;    C29-   C26-   O25-   C31
   302   299   318   319   9   0.00   0.66944   2 ;    C29-   C26-   O25-   C31
   302   299   318   319   9   0.00   1.00416   3 ;    C29-   C26-   O25-   C31
   302   301   298   304   9   0.00   0.65084   3 ;    C29-   C28-   C25-   H43
   302   301   308   309   9   0.00   0.00000   0 ;    C29-   C28-   O21-   H47
   303   299   302   306   9   0.00   0.65084   3 ;    H42-   C26-   C29-   H45
   303   299   302   310   9   0.00   0.65084   3 ;    H42-   C26-   C29-   O22
   303   299   318   319   9   0.00   1.60387   3 ;    H42-   C26-   O25-   C31
   304   298   300   307   9   0.00   0.65084   3 ;    H43-   C25-   C27-   H46
   304   298   300   312   9   0.00   0.00000   0 ;    H43-   C25-   C27-   O23
   304   298   300   312   9   0.00   1.04600   1 ;    H43-   C25-   C27-   O23
   304   298   300   313   9   0.00   0.65084   3 ;    H43-   C25-   C27-   C30
   304   298   301   305   9   0.00   0.65084   3 ;    H43-   C25-   C28-   H44
   304   298   301   308   9   0.00   0.00000   0 ;    H43-   C25-   C28-   O21
   304   298   301   308   9   0.00   1.04600   1 ;    H43-   C25-   C28-   O21
   305   301   302   306   9   0.00   0.65084   3 ;    H44-   C28-   C29-   H45
   305   301   302   310   9   0.00   0.00000   0 ;    H44-   C28-   C29-   O22
   305   301   302   310   9   0.00   1.04600   1 ;    H44-   C28-   C29-   O22
   305   301   308   309   9   0.00   0.47279   3 ;    H44-   C28-   O21-   H47
   306   302   299   312   9   0.00   0.00000   0 ;    H45-   C29-   C26-   O23
   306   302   299   312   9   0.00   1.04600   1 ;    H45-   C29-   C26-   O23
   306   302   299   318   9   0.00   0.00000   0 ;    H45-   C29-   C26-   O25
   306   302   299   318   9   0.00   1.04600   1 ;    H45-   C29-   C26-   O25
   306   302   301   308   9   0.00   0.00000   0 ;    H45-   C29-   C28-   O21
   306   302   301   308   9   0.00   1.04600   1 ;    H45-   C29-   C28-   O21
   306   302   310   311   9   0.00   0.47279   3 ;    H45-   C29-   O22-   H48
   307   300   313   314   9   0.00   0.65084   3 ;    H46-   C27-   C30-   H49
   307   300   313   315   9   0.00   0.65084   3 ;    H46-   C27-   C30-   H50
   307   300   313   316   9   0.00   0.00000   0 ;    H46-   C27-   C30-   O24
   307   300   313   316   9   0.00   1.04600   1 ;    H46-   C27-   C30-   O24
   308   301   302   310   9   0.00   3.76560   3 ;    O21-   C28-   C29-   O22
   308   301   302   310   9   0.00   4.72792   2 ;    O21-   C28-   C29-   O22
   310   302   299   312   9   0.00   0.00000   0 ;    O22-   C29-   C26-   O23
   310   302   299   312   9   0.00   4.22584   3 ;    O22-   C29-   C26-   O23
   310   302   299   312   9   180.00   0.08368   1 ;    O22-   C29-   C26-   O23
   310   302   299   318   9   0.00   0.00000   0 ;    O22-   C29-   C26-   O25
   310   302   299   318   9   0.00   4.22584   3 ;    O22-   C29-   C26-   O25
   310   302   299   318   9   180.00   0.08368   1 ;    O22-   C29-   C26-   O25
   312   299   318   319   9   0.00   5.18816   2 ;    O23-   C26-   O25-   C31
   312   299   318   319   9   180.00   0.00000   3 ;    O23-   C26-   O25-   C31
   312   299   318   319   9   180.00   4.05848   1 ;    O23-   C26-   O25-   C31
   312   300   313   314   9   0.00   0.00000   0 ;    O23-   C27-   C30-   H49
   312   300   313   314   9   0.00   1.04600   1 ;    O23-   C27-   C30-   H49
   312   300   313   315   9   0.00   0.00000   0 ;    O23-   C27-   C30-   H50
   312   300   313   315   9   0.00   1.04600   1 ;    O23-   C27-   C30-   H50
   312   300   313   316   9   0.00   0.00000   0 ;    O23-   C27-   C30-   O24
   312   300   313   316   9   0.00   4.22584   3 ;    O23-   C27-   C30-   O24
   312   300   313   316   9   180.00   0.08368   1 ;    O23-   C27-   C30-   O24
   314   313   316   317   9   0.00   0.47279   3 ;    H49-   C30-   O24-   H51
   315   313   316   317   9   0.00   0.47279   3 ;    H50-   C30-   O24-   H51
   318   319   321   320   9   0.00   0.65084   3 ;    O25-   C31-   C33-   C32
   318   319   321   324   9   0.00   0.00000   0 ;    O25-   C31-   C33-   H52
   318   319   321   324   9   0.00   1.04600   1 ;    O25-   C31-   C33-   H52
   318   319   321   337   9   0.00   0.00000   0 ;    O25-   C31-   C33-   O29
   318   319   321   337   9   0.00   4.22584   3 ;    O25-   C31-   C33-   O29
   318   319   321   337   9   180.00   0.08368   1 ;    O25-   C31-   C33-   O29
   318   319   322   326   9   0.00   0.00000   0 ;    O25-   C31-   C34-   H54
   318   319   322   326   9   0.00   1.04600   1 ;    O25-   C31-   C34-   H54
   318   319   322   329   9   0.00   0.00000   0 ;    O25-   C31-   C34-   O26
   318   319   322   329   9   180.00   0.00000   2 ;    O25-   C31-   C34-   O26
   318   319   322   329   9   180.00   0.71128   1 ;    O25-   C31-   C34-   O26
   318   319   322   330   9   0.00   0.65084   3 ;    O25-   C31-   C34-   C36
   319   321   320   323   9   0.00   0.46024   1 ;    C31-   C33-   C32-   C35
   319   321   320   323   9   0.00   0.54392   3 ;    C31-   C33-   C32-   C35
   319   321   320   323   9   180.00   1.21336   2 ;    C31-   C33-   C32-   C35
   319   321   320   325   9   0.00   0.65084   3 ;    C31-   C33-   C32-   H53
   319   321   320   335   9   0.00   0.87864   3 ;    C31-   C33-   C32-   O28
   319   321   337   338   9   0.00   0.00000   0 ;    C31-   C33-   O29-   H61
   319   322   329   323   9   0.00   0.00000   0 ;    C31-   C34-   O26-   C35
   319   322   329   323   9   0.00   0.66944   2 ;    C31-   C34-   O26-   C35
   319   322   329   323   9   0.00   1.00416   3 ;    C31-   C34-   O26-   C35
   319   322   330   331   9   0.00   0.65084   3 ;    C31-   C34-   C36-   H57
   319   322   330   332   9   0.00   0.65084   3 ;    C31-   C34-   C36-   H58
   319   322   330   333   9   0.00   0.87864   3 ;    C31-   C34-   C36-   O27
   320   321   319   322   9   0.00   0.46024   1 ;    C32-   C33-   C31-   C34
   320   321   319   322   9   0.00   0.54392   3 ;    C32-   C33-   C31-   C34
   320   321   319   322   9   180.00   1.21336   2 ;    C32-   C33-   C31-   C34
   320   321   319   328   9   0.00   0.65084   3 ;    C32-   C33-   C31-   H56
   320   321   337   338   9   0.00   0.00000   0 ;    C32-   C33-   O29-   H61
   320   323   329   322   9   0.00   0.00000   0 ;    C32-   C35-   O26-   C34
   320   323   329   322   9   0.00   0.66944   2 ;    C32-   C35-   O26-   C34
   320   323   329   322   9   0.00   1.00416   3 ;    C32-   C35-   O26-   C34
   320   323   339   340   9   0.00   0.00000   0 ;    C32-   C35-   O30-   C37
   320   323   339   340   9   0.00   0.66944   2 ;    C32-   C35-   O30-   C37
   320   323   339   340   9   0.00   1.00416   3 ;    C32-   C35-   O30-   C37
   321   319   322   326   9   0.00   0.65084   3 ;    C33-   C31-   C34-   H54
   321   319   322   329   9   0.00   0.65084   3 ;    C33-   C31-   C34-   O26
   321   319   322   330   9   0.00   0.46024   1 ;    C33-   C31-   C34-   C36
   321   319   322   330   9   0.00   0.54392   3 ;    C33-   C31-   C34-   C36
   321   319   322   330   9   180.00   1.21336   2 ;    C33-   C31-   C34-   C36
   321   320   323   327   9   0.00   0.65084   3 ;    C33-   C32-   C35-   H55
   321   320   323   329   9   0.00   0.65084   3 ;    C33-   C32-   C35-   O26
   321   320   323   339   9   0.00   0.65084   3 ;    C33-   C32-   C35-   O30
   321   320   335   336   9   0.00   0.00000   0 ;    C33-   C32-   O28-   H60
   322   319   321   324   9   0.00   0.65084   3 ;    C34-   C31-   C33-   H52
   322   319   321   337   9   0.00   0.87864   3 ;    C34-   C31-   C33-   O29
   322   329   323   327   9   0.00   1.60387   3 ;    C34-   O26-   C35-   H55
   322   329   323   339   9   0.00   5.18816   2 ;    C34-   O26-   C35-   O30
   322   329   323   339   9   180.00   0.00000   3 ;    C34-   O26-   C35-   O30
   322   329   323   339   9   180.00   4.05848   1 ;    C34-   O26-   C35-   O30
   322   330   333   334   9   0.00   0.00000   0 ;    C34-   C36-   O27-   H59
   323   320   321   324   9   0.00   0.65084   3 ;    C35-   C32-   C33-   H52
   323   320   321   337   9   0.00   0.87864   3 ;    C35-   C32-   C33-   O29
   323   320   335   336   9   0.00   0.00000   0 ;    C35-   C32-   O28-   H60
   323   329   322   326   9   0.00   1.41001   3 ;    C35-   O26-   C34-   H54
   323   329   322   330   9   0.00   0.00000   0 ;    C35-   O26-   C34-   C36
   323   329   322   330   9   0.00   0.66944   2 ;    C35-   O26-   C34-   C36
   323   329   322   330   9   0.00   1.00416   3 ;    C35-   O26-   C34-   C36
   323   339   340   342   9   0.00   0.00000   0 ;    C35-   O30-   C37-   C39
   323   339   340   342   9   0.00   0.66944   2 ;    C35-   O30-   C37-   C39
   323   339   340   342   9   0.00   1.00416   3 ;    C35-   O30-   C37-   C39
   323   339   340   343   9   0.00   0.00000   0 ;    C35-   O30-   C37-   C40
   323   339   340   343   9   0.00   0.66944   2 ;    C35-   O30-   C37-   C40
   323   339   340   343   9   0.00   1.00416   3 ;    C35-   O30-   C37-   C40
   323   339   340   346   9   0.00   1.41001   3 ;    C35-   O30-   C37-   H63
   324   321   319   328   9   0.00   0.65084   3 ;    H52-   C33-   C31-   H56
   324   321   320   325   9   0.00   0.65084   3 ;    H52-   C33-   C32-   H53
   324   321   320   335   9   0.00   0.00000   0 ;    H52-   C33-   C32-   O28
   324   321   320   335   9   0.00   1.04600   1 ;    H52-   C33-   C32-   O28
   324   321   337   338   9   0.00   0.47279   3 ;    H52-   C33-   O29-   H61
   325   320   321   337   9   0.00   0.00000   0 ;    H53-   C32-   C33-   O29
   325   320   321   337   9   0.00   1.04600   1 ;    H53-   C32-   C33-   O29
   325   320   323   327   9   0.00   0.65084   3 ;    H53-   C32-   C35-   H55
   325   320   323   329   9   0.00   0.00000   0 ;    H53-   C32-   C35-   O26
   325   320   323   329   9   0.00   1.04600   1 ;    H53-   C32-   C35-   O26
   325   320   323   339   9   0.00   0.00000   0 ;    H53-   C32-   C35-   O30
   325   320   323   339   9   0.00   1.04600   1 ;    H53-   C32-   C35-   O30
   325   320   335   336   9   0.00   0.47279   3 ;    H53-   C32-   O28-   H60
   326   322   319   328   9   0.00   0.65084   3 ;    H54-   C34-   C31-   H56
   326   322   330   331   9   0.00   0.65084   3 ;    H54-   C34-   C36-   H57
   326   322   330   332   9   0.00   0.65084   3 ;    H54-   C34-   C36-   H58
   326   322   330   333   9   0.00   0.00000   0 ;    H54-   C34-   C36-   O27
   326   322   330   333   9   0.00   1.04600   1 ;    H54-   C34-   C36-   O27
   327   323   320   335   9   0.00   0.65084   3 ;    H55-   C35-   C32-   O28
   327   323   339   340   9   0.00   1.60387   3 ;    H55-   C35-   O30-   C37
   328   319   321   337   9   0.00   0.00000   0 ;    H56-   C31-   C33-   O29
   328   319   321   337   9   0.00   1.04600   1 ;    H56-   C31-   C33-   O29
   328   319   322   329   9   0.00   0.00000   0 ;    H56-   C31-   C34-   O26
   328   319   322   329   9   0.00   1.04600   1 ;    H56-   C31-   C34-   O26
   328   319   322   330   9   0.00   0.65084   3 ;    H56-   C31-   C34-   C36
   329   322   330   331   9   0.00   0.00000   0 ;    O26-   C34-   C36-   H57
   329   322   330   331   9   0.00   1.04600   1 ;    O26-   C34-   C36-   H57
   329   322   330   332   9   0.00   0.00000   0 ;    O26-   C34-   C36-   H58
   329   322   330   332   9   0.00   1.04600   1 ;    O26-   C34-   C36-   H58
   329   322   330   333   9   0.00   0.00000   0 ;    O26-   C34-   C36-   O27
   329   322   330   333   9   0.00   4.22584   3 ;    O26-   C34-   C36-   O27
   329   322   330   333   9   180.00   0.08368   1 ;    O26-   C34-   C36-   O27
   329   323   320   335   9   0.00   0.00000   0 ;    O26-   C35-   C32-   O28
   329   323   320   335   9   0.00   4.22584   3 ;    O26-   C35-   C32-   O28
   329   323   320   335   9   180.00   0.08368   1 ;    O26-   C35-   C32-   O28
   329   323   339   340   9   0.00   5.18816   2 ;    O26-   C35-   O30-   C37
   329   323   339   340   9   180.00   0.00000   3 ;    O26-   C35-   O30-   C37
   329   323   339   340   9   180.00   4.05848   1 ;    O26-   C35-   O30-   C37
   331   330   333   334   9   0.00   0.47279   3 ;    H57-   C36-   O27-   H59
   332   330   333   334   9   0.00   0.47279   3 ;    H58-   C36-   O27-   H59
   335   320   321   337   9   0.00   3.76560   3 ;    O28-   C32-   C33-   O29
   335   320   321   337   9   0.00   4.72792   2 ;    O28-   C32-   C33-   O29
   335   320   323   339   9   0.00   0.00000   0 ;    O28-   C32-   C35-   O30
   335   320   323   339   9   0.00   4.22584   3 ;    O28-   C32-   C35-   O30
   335   320   323   339   9   180.00   0.08368   1 ;    O28-   C32-   C35-   O30
   339   340   342   349   9   0.00   0.00000   0 ;    O30-   C37-   C39-   H66
   339   340   342   349   9   0.00   1.04600   1 ;    O30-   C37-   C39-   H66
   339   340   342   354   9   0.00   0.00000   0 ;    O30-   C37-   C39-   O33
   339   340   342   354   9   180.00   0.00000   2 ;    O30-   C37-   C39-   O33
   339   340   342   354   9   180.00   0.71128   1 ;    O30-   C37-   C39-   O33
   339   340   342   355   9   0.00   0.65084   3 ;    O30-   C37-   C39-   C42
   339   340   343   344   9   0.00   0.65084   3 ;    O30-   C37-   C40-   C41
   339   340   343   347   9   0.00   0.00000   0 ;    O30-   C37-   C40-   H64
   339   340   343   347   9   0.00   1.04600   1 ;    O30-   C37-   C40-   H64
   339   340   343   350   9   0.00   0.00000   0 ;    O30-   C37-   C40-   O31
   339   340   343   350   9   0.00   4.22584   3 ;    O30-   C37-   C40-   O31
   339   340   343   350   9   180.00   0.08368   1 ;    O30-   C37-   C40-   O31
   340   342   354   341   9   0.00   0.00000   0 ;    C37-   C39-   O33-   C38
   340   342   354   341   9   0.00   0.66944   2 ;    C37-   C39-   O33-   C38
   340   342   354   341   9   0.00   1.00416   3 ;    C37-   C39-   O33-   C38
   340   342   355   356   9   0.00   0.65084   3 ;    C37-   C39-   C42-   H69
   340   342   355   357   9   0.00   0.65084   3 ;    C37-   C39-   C42-   H70
   340   342   355   358   9   0.00   0.87864   3 ;    C37-   C39-   C42-   O34
   340   343   344   341   9   0.00   0.46024   1 ;    C37-   C40-   C41-   C38
   340   343   344   341   9   0.00   0.54392   3 ;    C37-   C40-   C41-   C38
   340   343   344   341   9   180.00   1.21336   2 ;    C37-   C40-   C41-   C38
   340   343   344   348   9   0.00   0.65084   3 ;    C37-   C40-   C41-   H65
   340   343   344   352   9   0.00   0.87864   3 ;    C37-   C40-   C41-   O32
   340   343   350   351   9   0.00   0.00000   0 ;    C37-   C40-   O31-   H67
   341   344   343   347   9   0.00   0.65084   3 ;    C38-   C41-   C40-   H64
   341   344   343   350   9   0.00   0.87864   3 ;    C38-   C41-   C40-   O31
   341   344   352   353   9   0.00   0.00000   0 ;    C38-   C41-   O32-   H68
   341   354   342   349   9   0.00   1.41001   3 ;    C38-   O33-   C39-   H66
   341   354   342   355   9   0.00   0.00000   0 ;    C38-   O33-   C39-   C42
   341   354   342   355   9   0.00   0.66944   2 ;    C38-   O33-   C39-   C42
   341   354   342   355   9   0.00   1.00416   3 ;    C38-   O33-   C39-   C42
   341   360   361   363   9   0.00   0.00000   0 ;    C38-   O35-   C43-   C45
   341   360   361   363   9   0.00   0.66944   2 ;    C38-   O35-   C43-   C45
   341   360   361   363   9   0.00   1.00416   3 ;    C38-   O35-   C43-   C45
   341   360   361   364   9   0.00   0.00000   0 ;    C38-   O35-   C43-   C46
   341   360   361   364   9   0.00   0.66944   2 ;    C38-   O35-   C43-   C46
   341   360   361   364   9   0.00   1.00416   3 ;    C38-   O35-   C43-   C46
   341   360   361   370   9   0.00   1.41001   3 ;    C38-   O35-   C43-   H76
   342   340   343   344   9   0.00   0.46024   1 ;    C39-   C37-   C40-   C41
   342   340   343   344   9   0.00   0.54392   3 ;    C39-   C37-   C40-   C41
   342   340   343   344   9   180.00   1.21336   2 ;    C39-   C37-   C40-   C41
   342   340   343   347   9   0.00   0.65084   3 ;    C39-   C37-   C40-   H64
   342   340   343   350   9   0.00   0.87864   3 ;    C39-   C37-   C40-   O31
   342   354   341   344   9   0.00   0.00000   0 ;    C39-   O33-   C38-   C41
   342   354   341   344   9   0.00   0.66944   2 ;    C39-   O33-   C38-   C41
   342   354   341   344   9   0.00   1.00416   3 ;    C39-   O33-   C38-   C41
   342   354   341   345   9   0.00   1.60387   3 ;    C39-   O33-   C38-   H62
   342   354   341   360   9   0.00   5.18816   2 ;    C39-   O33-   C38-   O35
   342   354   341   360   9   180.00   0.00000   3 ;    C39-   O33-   C38-   O35
   342   354   341   360   9   180.00   4.05848   1 ;    C39-   O33-   C38-   O35
   342   355   358   359   9   0.00   0.00000   0 ;    C39-   C42-   O34-   H71
   343   340   342   349   9   0.00   0.65084   3 ;    C40-   C37-   C39-   H66
   343   340   342   354   9   0.00   0.65084   3 ;    C40-   C37-   C39-   O33
   343   340   342   355   9   0.00   0.46024   1 ;    C40-   C37-   C39-   C42
   343   340   342   355   9   0.00   0.54392   3 ;    C40-   C37-   C39-   C42
   343   340   342   355   9   180.00   1.21336   2 ;    C40-   C37-   C39-   C42
   343   344   341   345   9   0.00   0.65084   3 ;    C40-   C41-   C38-   H62
   343   344   341   354   9   0.00   0.65084   3 ;    C40-   C41-   C38-   O33
   343   344   341   360   9   0.00   0.65084   3 ;    C40-   C41-   C38-   O35
   343   344   352   353   9   0.00   0.00000   0 ;    C40-   C41-   O32-   H68
   344   341   360   361   9   0.00   0.00000   0 ;    C41-   C38-   O35-   C43
   344   341   360   361   9   0.00   0.66944   2 ;    C41-   C38-   O35-   C43
   344   341   360   361   9   0.00   1.00416   3 ;    C41-   C38-   O35-   C43
   344   343   340   346   9   0.00   0.65084   3 ;    C41-   C40-   C37-   H63
   344   343   350   351   9   0.00   0.00000   0 ;    C41-   C40-   O31-   H67
   345   341   344   348   9   0.00   0.65084   3 ;    H62-   C38-   C41-   H65
   345   341   344   352   9   0.00   0.65084   3 ;    H62-   C38-   C41-   O32
   345   341   360   361   9   0.00   1.60387   3 ;    H62-   C38-   O35-   C43
   346   340   342   349   9   0.00   0.65084   3 ;    H63-   C37-   C39-   H66
   346   340   342   354   9   0.00   0.00000   0 ;    H63-   C37-   C39-   O33
   346   340   342   354   9   0.00   1.04600   1 ;    H63-   C37-   C39-   O33
   346   340   342   355   9   0.00   0.65084   3 ;    H63-   C37-   C39-   C42
   346   340   343   347   9   0.00   0.65084   3 ;    H63-   C37-   C40-   H64
   346   340   343   350   9   0.00   0.00000   0 ;    H63-   C37-   C40-   O31
   346   340   343   350   9   0.00   1.04600   1 ;    H63-   C37-   C40-   O31
   347   343   344   348   9   0.00   0.65084   3 ;    H64-   C40-   C41-   H65
   347   343   344   352   9   0.00   0.00000   0 ;    H64-   C40-   C41-   O32
   347   343   344   352   9   0.00   1.04600   1 ;    H64-   C40-   C41-   O32
   347   343   350   351   9   0.00   0.47279   3 ;    H64-   C40-   O31-   H67
   348   344   341   354   9   0.00   0.00000   0 ;    H65-   C41-   C38-   O33
   348   344   341   354   9   0.00   1.04600   1 ;    H65-   C41-   C38-   O33
   348   344   341   360   9   0.00   0.00000   0 ;    H65-   C41-   C38-   O35
   348   344   341   360   9   0.00   1.04600   1 ;    H65-   C41-   C38-   O35
   348   344   343   350   9   0.00   0.00000   0 ;    H65-   C41-   C40-   O31
   348   344   343   350   9   0.00   1.04600   1 ;    H65-   C41-   C40-   O31
   348   344   352   353   9   0.00   0.47279   3 ;    H65-   C41-   O32-   H68
   349   342   355   356   9   0.00   0.65084   3 ;    H66-   C39-   C42-   H69
   349   342   355   357   9   0.00   0.65084   3 ;    H66-   C39-   C42-   H70
   349   342   355   358   9   0.00   0.00000   0 ;    H66-   C39-   C42-   O34
   349   342   355   358   9   0.00   1.04600   1 ;    H66-   C39-   C42-   O34
   350   343   344   352   9   0.00   3.76560   3 ;    O31-   C40-   C41-   O32
   350   343   344   352   9   0.00   4.72792   2 ;    O31-   C40-   C41-   O32
   352   344   341   354   9   0.00   0.00000   0 ;    O32-   C41-   C38-   O33
   352   344   341   354   9   0.00   4.22584   3 ;    O32-   C41-   C38-   O33
   352   344   341   354   9   180.00   0.08368   1 ;    O32-   C41-   C38-   O33
   352   344   341   360   9   0.00   0.00000   0 ;    O32-   C41-   C38-   O35
   352   344   341   360   9   0.00   4.22584   3 ;    O32-   C41-   C38-   O35
   352   344   341   360   9   180.00   0.08368   1 ;    O32-   C41-   C38-   O35
   354   341   360   361   9   0.00   5.18816   2 ;    O33-   C38-   O35-   C43
   354   341   360   361   9   180.00   0.00000   3 ;    O33-   C38-   O35-   C43
   354   341   360   361   9   180.00   4.05848   1 ;    O33-   C38-   O35-   C43
   354   342   355   356   9   0.00   0.00000   0 ;    O33-   C39-   C42-   H69
   354   342   355   356   9   0.00   1.04600   1 ;    O33-   C39-   C42-   H69
   354   342   355   357   9   0.00   0.00000   0 ;    O33-   C39-   C42-   H70
   354   342   355   357   9   0.00   1.04600   1 ;    O33-   C39-   C42-   H70
   354   342   355   358   9   0.00   0.00000   0 ;    O33-   C39-   C42-   O34
   354   342   355   358   9   0.00   4.22584   3 ;    O33-   C39-   C42-   O34
   354   342   355   358   9   180.00   0.08368   1 ;    O33-   C39-   C42-   O34
   356   355   358   359   9   0.00   0.47279   3 ;    H69-   C42-   O34-   H71
   357   355   358   359   9   0.00   0.47279   3 ;    H70-   C42-   O34-   H71
   360   361   363   362   9   0.00   0.65084   3 ;    O35-   C43-   C45-   C44
   360   361   363   366   9   0.00   0.00000   0 ;    O35-   C43-   C45-   H72
   360   361   363   366   9   0.00   1.04600   1 ;    O35-   C43-   C45-   H72
   360   361   363   379   9   0.00   0.00000   0 ;    O35-   C43-   C45-   O39
   360   361   363   379   9   0.00   4.22584   3 ;    O35-   C43-   C45-   O39
   360   361   363   379   9   180.00   0.08368   1 ;    O35-   C43-   C45-   O39
   360   361   364   368   9   0.00   0.00000   0 ;    O35-   C43-   C46-   H74
   360   361   364   368   9   0.00   1.04600   1 ;    O35-   C43-   C46-   H74
   360   361   364   371   9   0.00   0.00000   0 ;    O35-   C43-   C46-   O36
   360   361   364   371   9   180.00   0.00000   2 ;    O35-   C43-   C46-   O36
   360   361   364   371   9   180.00   0.71128   1 ;    O35-   C43-   C46-   O36
   360   361   364   372   9   0.00   0.65084   3 ;    O35-   C43-   C46-   C48
   361   363   362   365   9   0.00   0.46024   1 ;    C43-   C45-   C44-   C47
   361   363   362   365   9   0.00   0.54392   3 ;    C43-   C45-   C44-   C47
   361   363   362   365   9   180.00   1.21336   2 ;    C43-   C45-   C44-   C47
   361   363   362   367   9   0.00   0.65084   3 ;    C43-   C45-   C44-   H73
   361   363   362   377   9   0.00   0.87864   3 ;    C43-   C45-   C44-   O38
   361   363   379   380   9   0.00   0.00000   0 ;    C43-   C45-   O39-   H81
   361   364   371   365   9   0.00   0.00000   0 ;    C43-   C46-   O36-   C47
   361   364   371   365   9   0.00   0.66944   2 ;    C43-   C46-   O36-   C47
   361   364   371   365   9   0.00   1.00416   3 ;    C43-   C46-   O36-   C47
   361   364   372   373   9   0.00   0.65084   3 ;    C43-   C46-   C48-   H77
   361   364   372   374   9   0.00   0.65084   3 ;    C43-   C46-   C48-   H78
   361   364   372   375   9   0.00   0.87864   3 ;    C43-   C46-   C48-   O37
   362   363   361   364   9   0.00   0.46024   1 ;    C44-   C45-   C43-   C46
   362   363   361   364   9   0.00   0.54392   3 ;    C44-   C45-   C43-   C46
   362   363   361   364   9   180.00   1.21336   2 ;    C44-   C45-   C43-   C46
   362   363   361   370   9   0.00   0.65084   3 ;    C44-   C45-   C43-   H76
   362   363   379   380   9   0.00   0.00000   0 ;    C44-   C45-   O39-   H81
   362   365   371   364   9   0.00   0.00000   0 ;    C44-   C47-   O36-   C46
   362   365   371   364   9   0.00   0.66944   2 ;    C44-   C47-   O36-   C46
   362   365   371   364   9   0.00   1.00416   3 ;    C44-   C47-   O36-   C46
   362   365   381   382   9   0.00   0.00000   0 ;    C44-   C47-   O40-   C49
   362   365   381   382   9   0.00   0.66944   2 ;    C44-   C47-   O40-   C49
   362   365   381   382   9   0.00   1.00416   3 ;    C44-   C47-   O40-   C49
   363   361   364   368   9   0.00   0.65084   3 ;    C45-   C43-   C46-   H74
   363   361   364   371   9   0.00   0.65084   3 ;    C45-   C43-   C46-   O36
   363   361   364   372   9   0.00   0.46024   1 ;    C45-   C43-   C46-   C48
   363   361   364   372   9   0.00   0.54392   3 ;    C45-   C43-   C46-   C48
   363   361   364   372   9   180.00   1.21336   2 ;    C45-   C43-   C46-   C48
   363   362   365   369   9   0.00   0.65084   3 ;    C45-   C44-   C47-   H75
   363   362   365   371   9   0.00   0.65084   3 ;    C45-   C44-   C47-   O36
   363   362   365   381   9   0.00   0.65084   3 ;    C45-   C44-   C47-   O40
   363   362   377   378   9   0.00   0.00000   0 ;    C45-   C44-   O38-   H80
   364   361   363   366   9   0.00   0.65084   3 ;    C46-   C43-   C45-   H72
   364   361   363   379   9   0.00   0.87864   3 ;    C46-   C43-   C45-   O39
   364   371   365   369   9   0.00   1.60387   3 ;    C46-   O36-   C47-   H75
   364   371   365   381   9   0.00   5.18816   2 ;    C46-   O36-   C47-   O40
   364   371   365   381   9   180.00   0.00000   3 ;    C46-   O36-   C47-   O40
   364   371   365   381   9   180.00   4.05848   1 ;    C46-   O36-   C47-   O40
   364   372   375   376   9   0.00   0.00000   0 ;    C46-   C48-   O37-   H79
   365   362   363   366   9   0.00   0.65084   3 ;    C47-   C44-   C45-   H72
   365   362   363   379   9   0.00   0.87864   3 ;    C47-   C44-   C45-   O39
   365   362   377   378   9   0.00   0.00000   0 ;    C47-   C44-   O38-   H80
   365   371   364   368   9   0.00   1.41001   3 ;    C47-   O36-   C46-   H74
   365   371   364   372   9   0.00   0.00000   0 ;    C47-   O36-   C46-   C48
   365   371   364   372   9   0.00   0.66944   2 ;    C47-   O36-   C46-   C48
   365   371   364   372   9   0.00   1.00416   3 ;    C47-   O36-   C46-   C48
   365   381   382   384   9   0.00   0.00000   0 ;    C47-   O40-   C49-   C51
   365   381   382   384   9   0.00   0.66944   2 ;    C47-   O40-   C49-   C51
   365   381   382   384   9   0.00   1.00416   3 ;    C47-   O40-   C49-   C51
   365   381   382   385   9   0.00   0.00000   0 ;    C47-   O40-   C49-   C52
   365   381   382   385   9   0.00   0.66944   2 ;    C47-   O40-   C49-   C52
   365   381   382   385   9   0.00   1.00416   3 ;    C47-   O40-   C49-   C52
   365   381   382   388   9   0.00   1.41001   3 ;    C47-   O40-   C49-   H83
   366   363   361   370   9   0.00   0.65084   3 ;    H72-   C45-   C43-   H76
   366   363   362   367   9   0.00   0.65084   3 ;    H72-   C45-   C44-   H73
   366   363   362   377   9   0.00   0.00000   0 ;    H72-   C45-   C44-   O38
   366   363   362   377   9   0.00   1.04600   1 ;    H72-   C45-   C44-   O38
   366   363   379   380   9   0.00   0.47279   3 ;    H72-   C45-   O39-   H81
   367   362   363   379   9   0.00   0.00000   0 ;    H73-   C44-   C45-   O39
   367   362   363   379   9   0.00   1.04600   1 ;    H73-   C44-   C45-   O39
   367   362   365   369   9   0.00   0.65084   3 ;    H73-   C44-   C47-   H75
   367   362   365   371   9   0.00   0.00000   0 ;    H73-   C44-   C47-   O36
   367   362   365   371   9   0.00   1.04600   1 ;    H73-   C44-   C47-   O36
   367   362   365   381   9   0.00   0.00000   0 ;    H73-   C44-   C47-   O40
   367   362   365   381   9   0.00   1.04600   1 ;    H73-   C44-   C47-   O40
   367   362   377   378   9   0.00   0.47279   3 ;    H73-   C44-   O38-   H80
   368   364   361   370   9   0.00   0.65084   3 ;    H74-   C46-   C43-   H76
   368   364   372   373   9   0.00   0.65084   3 ;    H74-   C46-   C48-   H77
   368   364   372   374   9   0.00   0.65084   3 ;    H74-   C46-   C48-   H78
   368   364   372   375   9   0.00   0.00000   0 ;    H74-   C46-   C48-   O37
   368   364   372   375   9   0.00   1.04600   1 ;    H74-   C46-   C48-   O37
   369   365   362   377   9   0.00   0.65084   3 ;    H75-   C47-   C44-   O38
   369   365   381   382   9   0.00   1.60387   3 ;    H75-   C47-   O40-   C49
   370   361   363   379   9   0.00   0.00000   0 ;    H76-   C43-   C45-   O39
   370   361   363   379   9   0.00   1.04600   1 ;    H76-   C43-   C45-   O39
   370   361   364   371   9   0.00   0.00000   0 ;    H76-   C43-   C46-   O36
   370   361   364   371   9   0.00   1.04600   1 ;    H76-   C43-   C46-   O36
   370   361   364   372   9   0.00   0.65084   3 ;    H76-   C43-   C46-   C48
   371   364   372   373   9   0.00   0.00000   0 ;    O36-   C46-   C48-   H77
   371   364   372   373   9   0.00   1.04600   1 ;    O36-   C46-   C48-   H77
   371   364   372   374   9   0.00   0.00000   0 ;    O36-   C46-   C48-   H78
   371   364   372   374   9   0.00   1.04600   1 ;    O36-   C46-   C48-   H78
   371   364   372   375   9   0.00   0.00000   0 ;    O36-   C46-   C48-   O37
   371   364   372   375   9   0.00   4.22584   3 ;    O36-   C46-   C48-   O37
   371   364   372   375   9   180.00   0.08368   1 ;    O36-   C46-   C48-   O37
   371   365   362   377   9   0.00   0.00000   0 ;    O36-   C47-   C44-   O38
   371   365   362   377   9   0.00   4.22584   3 ;    O36-   C47-   C44-   O38
   371   365   362   377   9   180.00   0.08368   1 ;    O36-   C47-   C44-   O38
   371   365   381   382   9   0.00   5.18816   2 ;    O36-   C47-   O40-   C49
   371   365   381   382   9   180.00   0.00000   3 ;    O36-   C47-   O40-   C49
   371   365   381   382   9   180.00   4.05848   1 ;    O36-   C47-   O40-   C49
   373   372   375   376   9   0.00   0.47279   3 ;    H77-   C48-   O37-   H79
   374   372   375   376   9   0.00   0.47279   3 ;    H78-   C48-   O37-   H79
   377   362   363   379   9   0.00   3.76560   3 ;    O38-   C44-   C45-   O39
   377   362   363   379   9   0.00   4.72792   2 ;    O38-   C44-   C45-   O39
   377   362   365   381   9   0.00   0.00000   0 ;    O38-   C44-   C47-   O40
   377   362   365   381   9   0.00   4.22584   3 ;    O38-   C44-   C47-   O40
   377   362   365   381   9   180.00   0.08368   1 ;    O38-   C44-   C47-   O40
   381   382   384   391   9   0.00   0.00000   0 ;    O40-   C49-   C51-   H86
   381   382   384   391   9   0.00   1.04600   1 ;    O40-   C49-   C51-   H86
   381   382   384   396   9   0.00   0.00000   0 ;    O40-   C49-   C51-   O43
   381   382   384   396   9   180.00   0.00000   2 ;    O40-   C49-   C51-   O43
   381   382   384   396   9   180.00   0.71128   1 ;    O40-   C49-   C51-   O43
   381   382   384   397   9   0.00   0.65084   3 ;    O40-   C49-   C51-   C54
   381   382   385   386   9   0.00   0.65084   3 ;    O40-   C49-   C52-   C53
   381   382   385   389   9   0.00   0.00000   0 ;    O40-   C49-   C52-   H84
   381   382   385   389   9   0.00   1.04600   1 ;    O40-   C49-   C52-   H84
   381   382   385   392   9   0.00   0.00000   0 ;    O40-   C49-   C52-   O41
   381   382   385   392   9   0.00   4.22584   3 ;    O40-   C49-   C52-   O41
   381   382   385   392   9   180.00   0.08368   1 ;    O40-   C49-   C52-   O41
   382   384   396   383   9   0.00   0.00000   0 ;    C49-   C51-   O43-   C50
   382   384   396   383   9   0.00   0.66944   2 ;    C49-   C51-   O43-   C50
   382   384   396   383   9   0.00   1.00416   3 ;    C49-   C51-   O43-   C50
   382   384   397   398   9   0.00   0.65084   3 ;    C49-   C51-   C54-   H89
   382   384   397   399   9   0.00   0.65084   3 ;    C49-   C51-   C54-   H90
   382   384   397   400   9   0.00   0.87864   3 ;    C49-   C51-   C54-   O44
   382   385   386   383   9   0.00   0.46024   1 ;    C49-   C52-   C53-   C50
   382   385   386   383   9   0.00   0.54392   3 ;    C49-   C52-   C53-   C50
   382   385   386   383   9   180.00   1.21336   2 ;    C49-   C52-   C53-   C50
   382   385   386   390   9   0.00   0.65084   3 ;    C49-   C52-   C53-   H85
   382   385   386   394   9   0.00   0.87864   3 ;    C49-   C52-   C53-   O42
   382   385   392   393   9   0.00   0.00000   0 ;    C49-   C52-   O41-   H87
   383   386   385   389   9   0.00   0.65084   3 ;    C50-   C53-   C52-   H84
   383   386   385   392   9   0.00   0.87864   3 ;    C50-   C53-   C52-   O41
   383   386   394   395   9   0.00   0.00000   0 ;    C50-   C53-   O42-   H88
   383   396   384   391   9   0.00   1.41001   3 ;    C50-   O43-   C51-   H86
   383   396   384   397   9   0.00   0.00000   0 ;    C50-   O43-   C51-   C54
   383   396   384   397   9   0.00   0.66944   2 ;    C50-   O43-   C51-   C54
   383   396   384   397   9   0.00   1.00416   3 ;    C50-   O43-   C51-   C54
   383   402   403   405   9   0.00   0.00000   0 ;    C50-   O45-   C55-   C57
   383   402   403   405   9   0.00   0.66944   2 ;    C50-   O45-   C55-   C57
   383   402   403   405   9   0.00   1.00416   3 ;    C50-   O45-   C55-   C57
   383   402   403   406   9   0.00   0.00000   0 ;    C50-   O45-   C55-   C58
   383   402   403   406   9   0.00   0.66944   2 ;    C50-   O45-   C55-   C58
   383   402   403   406   9   0.00   1.00416   3 ;    C50-   O45-   C55-   C58
   383   402   403   412   9   0.00   1.41001   3 ;    C50-   O45-   C55-   H96
   384   382   385   386   9   0.00   0.46024   1 ;    C51-   C49-   C52-   C53
   384   382   385   386   9   0.00   0.54392   3 ;    C51-   C49-   C52-   C53
   384   382   385   386   9   180.00   1.21336   2 ;    C51-   C49-   C52-   C53
   384   382   385   389   9   0.00   0.65084   3 ;    C51-   C49-   C52-   H84
   384   382   385   392   9   0.00   0.87864   3 ;    C51-   C49-   C52-   O41
   384   396   383   386   9   0.00   0.00000   0 ;    C51-   O43-   C50-   C53
   384   396   383   386   9   0.00   0.66944   2 ;    C51-   O43-   C50-   C53
   384   396   383   386   9   0.00   1.00416   3 ;    C51-   O43-   C50-   C53
   384   396   383   387   9   0.00   1.60387   3 ;    C51-   O43-   C50-   H82
   384   396   383   402   9   0.00   5.18816   2 ;    C51-   O43-   C50-   O45
   384   396   383   402   9   180.00   0.00000   3 ;    C51-   O43-   C50-   O45
   384   396   383   402   9   180.00   4.05848   1 ;    C51-   O43-   C50-   O45
   384   397   400   401   9   0.00   0.00000   0 ;    C51-   C54-   O44-   H91
   385   382   384   391   9   0.00   0.65084   3 ;    C52-   C49-   C51-   H86
   385   382   384   396   9   0.00   0.65084   3 ;    C52-   C49-   C51-   O43
   385   382   384   397   9   0.00   0.46024   1 ;    C52-   C49-   C51-   C54
   385   382   384   397   9   0.00   0.54392   3 ;    C52-   C49-   C51-   C54
   385   382   384   397   9   180.00   1.21336   2 ;    C52-   C49-   C51-   C54
   385   386   383   387   9   0.00   0.65084   3 ;    C52-   C53-   C50-   H82
   385   386   383   396   9   0.00   0.65084   3 ;    C52-   C53-   C50-   O43
   385   386   383   402   9   0.00   0.65084   3 ;    C52-   C53-   C50-   O45
   385   386   394   395   9   0.00   0.00000   0 ;    C52-   C53-   O42-   H88
   386   383   402   403   9   0.00   0.00000   0 ;    C53-   C50-   O45-   C55
   386   383   402   403   9   0.00   0.66944   2 ;    C53-   C50-   O45-   C55
   386   383   402   403   9   0.00   1.00416   3 ;    C53-   C50-   O45-   C55
   386   385   382   388   9   0.00   0.65084   3 ;    C53-   C52-   C49-   H83
   386   385   392   393   9   0.00   0.00000   0 ;    C53-   C52-   O41-   H87
   387   383   386   390   9   0.00   0.65084   3 ;    H82-   C50-   C53-   H85
   387   383   386   394   9   0.00   0.65084   3 ;    H82-   C50-   C53-   O42
   387   383   402   403   9   0.00   1.60387   3 ;    H82-   C50-   O45-   C55
   388   382   384   391   9   0.00   0.65084   3 ;    H83-   C49-   C51-   H86
   388   382   384   396   9   0.00   0.00000   0 ;    H83-   C49-   C51-   O43
   388   382   384   396   9   0.00   1.04600   1 ;    H83-   C49-   C51-   O43
   388   382   384   397   9   0.00   0.65084   3 ;    H83-   C49-   C51-   C54
   388   382   385   389   9   0.00   0.65084   3 ;    H83-   C49-   C52-   H84
   388   382   385   392   9   0.00   0.00000   0 ;    H83-   C49-   C52-   O41
   388   382   385   392   9   0.00   1.04600   1 ;    H83-   C49-   C52-   O41
   389   385   386   390   9   0.00   0.65084   3 ;    H84-   C52-   C53-   H85
   389   385   386   394   9   0.00   0.00000   0 ;    H84-   C52-   C53-   O42
   389   385   386   394   9   0.00   1.04600   1 ;    H84-   C52-   C53-   O42
   389   385   392   393   9   0.00   0.47279   3 ;    H84-   C52-   O41-   H87
   390   386   383   396   9   0.00   0.00000   0 ;    H85-   C53-   C50-   O43
   390   386   383   396   9   0.00   1.04600   1 ;    H85-   C53-   C50-   O43
   390   386   383   402   9   0.00   0.00000   0 ;    H85-   C53-   C50-   O45
   390   386   383   402   9   0.00   1.04600   1 ;    H85-   C53-   C50-   O45
   390   386   385   392   9   0.00   0.00000   0 ;    H85-   C53-   C52-   O41
   390   386   385   392   9   0.00   1.04600   1 ;    H85-   C53-   C52-   O41
   390   386   394   395   9   0.00   0.47279   3 ;    H85-   C53-   O42-   H88
   391   384   397   398   9   0.00   0.65084   3 ;    H86-   C51-   C54-   H89
   391   384   397   399   9   0.00   0.65084   3 ;    H86-   C51-   C54-   H90
   391   384   397   400   9   0.00   0.00000   0 ;    H86-   C51-   C54-   O44
   391   384   397   400   9   0.00   1.04600   1 ;    H86-   C51-   C54-   O44
   392   385   386   394   9   0.00   3.76560   3 ;    O41-   C52-   C53-   O42
   392   385   386   394   9   0.00   4.72792   2 ;    O41-   C52-   C53-   O42
   394   386   383   396   9   0.00   0.00000   0 ;    O42-   C53-   C50-   O43
   394   386   383   396   9   0.00   4.22584   3 ;    O42-   C53-   C50-   O43
   394   386   383   396   9   180.00   0.08368   1 ;    O42-   C53-   C50-   O43
   394   386   383   402   9   0.00   0.00000   0 ;    O42-   C53-   C50-   O45
   394   386   383   402   9   0.00   4.22584   3 ;    O42-   C53-   C50-   O45
   394   386   383   402   9   180.00   0.08368   1 ;    O42-   C53-   C50-   O45
   396   383   402   403   9   0.00   5.18816   2 ;    O43-   C50-   O45-   C55
   396   383   402   403   9   180.00   0.00000   3 ;    O43-   C50-   O45-   C55
   396   383   402   403   9   180.00   4.05848   1 ;    O43-   C50-   O45-   C55
   396   384   397   398   9   0.00   0.00000   0 ;    O43-   C51-   C54-   H89
   396   384   397   398   9   0.00   1.04600   1 ;    O43-   C51-   C54-   H89
   396   384   397   399   9   0.00   0.00000   0 ;    O43-   C51-   C54-   H90
   396   384   397   399   9   0.00   1.04600   1 ;    O43-   C51-   C54-   H90
   396   384   397   400   9   0.00   0.00000   0 ;    O43-   C51-   C54-   O44
   396   384   397   400   9   0.00   4.22584   3 ;    O43-   C51-   C54-   O44
   396   384   397   400   9   180.00   0.08368   1 ;    O43-   C51-   C54-   O44
   398   397   400   401   9   0.00   0.47279   3 ;    H89-   C54-   O44-   H91
   399   397   400   401   9   0.00   0.47279   3 ;    H90-   C54-   O44-   H91
   402   403   405   404   9   0.00   0.65084   3 ;    O45-   C55-   C57-   C56
   402   403   405   408   9   0.00   0.00000   0 ;    O45-   C55-   C57-   H92
   402   403   405   408   9   0.00   1.04600   1 ;    O45-   C55-   C57-   H92
   402   403   405   421   9   0.00   0.00000   0 ;    O45-   C55-   C57-   O49
   402   403   405   421   9   0.00   4.22584   3 ;    O45-   C55-   C57-   O49
   402   403   405   421   9   180.00   0.08368   1 ;    O45-   C55-   C57-   O49
   402   403   406   410   9   0.00   0.00000   0 ;    O45-   C55-   C58-   H94
   402   403   406   410   9   0.00   1.04600   1 ;    O45-   C55-   C58-   H94
   402   403   406   413   9   0.00   0.00000   0 ;    O45-   C55-   C58-   O46
   402   403   406   413   9   180.00   0.00000   2 ;    O45-   C55-   C58-   O46
   402   403   406   413   9   180.00   0.71128   1 ;    O45-   C55-   C58-   O46
   402   403   406   414   9   0.00   0.65084   3 ;    O45-   C55-   C58-   C60
   403   405   404   407   9   0.00   0.46024   1 ;    C55-   C57-   C56-   C59
   403   405   404   407   9   0.00   0.54392   3 ;    C55-   C57-   C56-   C59
   403   405   404   407   9   180.00   1.21336   2 ;    C55-   C57-   C56-   C59
   403   405   404   409   9   0.00   0.65084   3 ;    C55-   C57-   C56-   H93
   403   405   404   419   9   0.00   0.87864   3 ;    C55-   C57-   C56-   O48
   403   405   421   422   9   0.00   0.00000   0 ;    C55-   C57-   O49-  H101
   403   406   413   407   9   0.00   0.00000   0 ;    C55-   C58-   O46-   C59
   403   406   413   407   9   0.00   0.66944   2 ;    C55-   C58-   O46-   C59
   403   406   413   407   9   0.00   1.00416   3 ;    C55-   C58-   O46-   C59
   403   406   414   415   9   0.00   0.65084   3 ;    C55-   C58-   C60-   H97
   403   406   414   416   9   0.00   0.65084   3 ;    C55-   C58-   C60-   H98
   403   406   414   417   9   0.00   0.87864   3 ;    C55-   C58-   C60-   O47
   404   405   403   406   9   0.00   0.46024   1 ;    C56-   C57-   C55-   C58
   404   405   403   406   9   0.00   0.54392   3 ;    C56-   C57-   C55-   C58
   404   405   403   406   9   180.00   1.21336   2 ;    C56-   C57-   C55-   C58
   404   405   403   412   9   0.00   0.65084   3 ;    C56-   C57-   C55-   H96
   404   405   421   422   9   0.00   0.00000   0 ;    C56-   C57-   O49-  H101
   404   407   413   406   9   0.00   0.00000   0 ;    C56-   C59-   O46-   C58
   404   407   413   406   9   0.00   0.66944   2 ;    C56-   C59-   O46-   C58
   404   407   413   406   9   0.00   1.00416   3 ;    C56-   C59-   O46-   C58
   404   407   423   424   9   0.00   0.00000   0 ;    C56-   C59-   O50-  H102
   405   403   406   410   9   0.00   0.65084   3 ;    C57-   C55-   C58-   H94
   405   403   406   413   9   0.00   0.65084   3 ;    C57-   C55-   C58-   O46
   405   403   406   414   9   0.00   0.46024   1 ;    C57-   C55-   C58-   C60
   405   403   406   414   9   0.00   0.54392   3 ;    C57-   C55-   C58-   C60
   405   403   406   414   9   180.00   1.21336   2 ;    C57-   C55-   C58-   C60
   405   404   407   411   9   0.00   0.65084   3 ;    C57-   C56-   C59-   H95
   405   404   407   413   9   0.00   0.65084   3 ;    C57-   C56-   C59-   O46
   405   404   407   423   9   0.00   0.87864   3 ;    C57-   C56-   C59-   O50
   405   404   419   420   9   0.00   0.00000   0 ;    C57-   C56-   O48-  H100
   406   403   405   408   9   0.00   0.65084   3 ;    C58-   C55-   C57-   H92
   406   403   405   421   9   0.00   0.87864   3 ;    C58-   C55-   C57-   O49
   406   413   407   411   9   0.00   1.60387   3 ;    C58-   O46-   C59-   H95
   406   413   407   423   9   0.00   1.60387   3 ;    C58-   O46-   C59-   O50
   406   414   417   418   9   0.00   0.00000   0 ;    C58-   C60-   O47-   H99
   407   404   405   408   9   0.00   0.65084   3 ;    C59-   C56-   C57-   H92
   407   404   405   421   9   0.00   0.87864   3 ;    C59-   C56-   C57-   O49
   407   404   419   420   9   0.00   0.00000   0 ;    C59-   C56-   O48-  H100
   407   413   406   410   9   0.00   1.41001   3 ;    C59-   O46-   C58-   H94
   407   413   406   414   9   0.00   0.00000   0 ;    C59-   O46-   C58-   C60
   407   413   406   414   9   0.00   0.66944   2 ;    C59-   O46-   C58-   C60
   407   413   406   414   9   0.00   1.00416   3 ;    C59-   O46-   C58-   C60
   408   405   403   412   9   0.00   0.65084   3 ;    H92-   C57-   C55-   H96
   408   405   404   409   9   0.00   0.65084   3 ;    H92-   C57-   C56-   H93
   408   405   404   419   9   0.00   0.00000   0 ;    H92-   C57-   C56-   O48
   408   405   404   419   9   0.00   1.04600   1 ;    H92-   C57-   C56-   O48
   408   405   421   422   9   0.00   0.47279   3 ;    H92-   C57-   O49-  H101
   409   404   405   421   9   0.00   0.00000   0 ;    H93-   C56-   C57-   O49
   409   404   405   421   9   0.00   1.04600   1 ;    H93-   C56-   C57-   O49
   409   404   407   411   9   0.00   0.65084   3 ;    H93-   C56-   C59-   H95
   409   404   407   413   9   0.00   0.00000   0 ;    H93-   C56-   C59-   O46
   409   404   407   413   9   0.00   1.04600   1 ;    H93-   C56-   C59-   O46
   409   404   407   423   9   0.00   0.00000   0 ;    H93-   C56-   C59-   O50
   409   404   407   423   9   0.00   1.04600   1 ;    H93-   C56-   C59-   O50
   409   404   419   420   9   0.00   0.47279   3 ;    H93-   C56-   O48-  H100
   410   406   403   412   9   0.00   0.65084   3 ;    H94-   C58-   C55-   H96
   410   406   414   415   9   0.00   0.65084   3 ;    H94-   C58-   C60-   H97
   410   406   414   416   9   0.00   0.65084   3 ;    H94-   C58-   C60-   H98
   410   406   414   417   9   0.00   0.00000   0 ;    H94-   C58-   C60-   O47
   410   406   414   417   9   0.00   1.04600   1 ;    H94-   C58-   C60-   O47
   411   407   404   419   9   0.00   0.65084   3 ;    H95-   C59-   C56-   O48
   411   407   423   424   9   0.00   0.69733   3 ;    H95-   C59-   O50-  H102
   412   403   405   421   9   0.00   0.00000   0 ;    H96-   C55-   C57-   O49
   412   403   405   421   9   0.00   1.04600   1 ;    H96-   C55-   C57-   O49
   412   403   406   413   9   0.00   0.00000   0 ;    H96-   C55-   C58-   O46
   412   403   406   413   9   0.00   1.04600   1 ;    H96-   C55-   C58-   O46
   412   403   406   414   9   0.00   0.65084   3 ;    H96-   C55-   C58-   C60
   413   406   414   415   9   0.00   0.00000   0 ;    O46-   C58-   C60-   H97
   413   406   414   415   9   0.00   1.04600   1 ;    O46-   C58-   C60-   H97
   413   406   414   416   9   0.00   0.00000   0 ;    O46-   C58-   C60-   H98
   413   406   414   416   9   0.00   1.04600   1 ;    O46-   C58-   C60-   H98
   413   406   414   417   9   0.00   0.00000   0 ;    O46-   C58-   C60-   O47
   413   406   414   417   9   0.00   4.22584   3 ;    O46-   C58-   C60-   O47
   413   406   414   417   9   180.00   0.08368   1 ;    O46-   C58-   C60-   O47
   413   407   404   419   9   0.00   0.00000   0 ;    O46-   C59-   C56-   O48
   413   407   404   419   9   0.00   4.22584   3 ;    O46-   C59-   C56-   O48
   413   407   404   419   9   180.00   0.08368   1 ;    O46-   C59-   C56-   O48
   413   407   423   424   9   0.00   0.69733   3 ;    O46-   C59-   O50-  H102
   415   414   417   418   9   0.00   0.47279   3 ;    H97-   C60-   O47-   H99
   416   414   417   418   9   0.00   0.47279   3 ;    H98-   C60-   O47-   H99
   419   404   405   421   9   0.00   3.76560   3 ;    O48-   C56-   C57-   O49
   419   404   405   421   9   0.00   4.72792   2 ;    O48-   C56-   C57-   O49
   419   404   407   423   9   0.00   3.76560   3 ;    O48-   C56-   C59-   O50
   419   404   407   423   9   0.00   4.72792   2 ;    O48-   C56-   C59-   O50
   425   426   428   435   9   0.00   0.65084   3 ;     H1-    C1-    C3-    H6
   425   426   428   440   9   0.00   0.00000   0 ;     H1-    C1-    C3-    O3
   425   426   428   440   9   0.00   1.04600   1 ;     H1-    C1-    C3-    O3
   425   426   428   441   9   0.00   0.33472   3 ;     H1-    C1-    C3-    C6
   425   426   429   430   9   0.00   0.33472   3 ;     H1-    C1-    C4-    C5
   425   426   429   433   9   0.00   0.65084   3 ;     H1-    C1-    C4-    H4
   425   426   429   436   9   0.00   0.75312   3 ;     H1-    C1-    C4-    O1
   425   426   429   436   9   0.00   2.13384   1 ;     H1-    C1-    C4-    O1
   426   428   440   427   9   0.00   0.00000   0 ;     C1-    C3-    O3-    C2
   426   428   440   427   9   0.00   0.66944   2 ;     C1-    C3-    O3-    C2
   426   428   440   427   9   0.00   1.00416   3 ;     C1-    C3-    O3-    C2
   426   428   441   442   9   0.00   0.65084   3 ;     C1-    C3-    C6-    H9
   426   428   441   443   9   0.00   0.65084   3 ;     C1-    C3-    C6-   H10
   426   428   441   444   9   0.00   0.87864   3 ;     C1-    C3-    C6-    O4
   426   429   430   427   9   0.00   0.46024   1 ;     C1-    C4-    C5-    C2
   426   429   430   427   9   0.00   0.54392   3 ;     C1-    C4-    C5-    C2
   426   429   430   427   9   180.00   1.21336   2 ;     C1-    C4-    C5-    C2
   426   429   430   434   9   0.00   0.65084   3 ;     C1-    C4-    C5-    H5
   426   429   430   438   9   0.00   0.87864   3 ;     C1-    C4-    C5-    O2
   426   429   436   437   9   0.00   0.00000   0 ;     C1-    C4-    O1-    H7
   427   430   429   433   9   0.00   0.65084   3 ;     C2-    C5-    C4-    H4
   427   430   429   436   9   0.00   0.87864   3 ;     C2-    C5-    C4-    O1
   427   430   438   439   9   0.00   0.00000   0 ;     C2-    C5-    O2-    H8
   427   440   428   435   9   0.00   1.41001   3 ;     C2-    O3-    C3-    H6
   427   440   428   441   9   0.00   0.00000   0 ;     C2-    O3-    C3-    C6
   427   440   428   441   9   0.00   0.66944   2 ;     C2-    O3-    C3-    C6
   427   440   428   441   9   0.00   1.00416   3 ;     C2-    O3-    C3-    C6
   427   446   447   449   9   0.00   0.00000   0 ;     C2-    O5-    C7-    C9
   427   446   447   449   9   0.00   0.66944   2 ;     C2-    O5-    C7-    C9
   427   446   447   449   9   0.00   1.00416   3 ;     C2-    O5-    C7-    C9
   427   446   447   450   9   0.00   0.00000   0 ;     C2-    O5-    C7-   C10
   427   446   447   450   9   0.00   0.66944   2 ;     C2-    O5-    C7-   C10
   427   446   447   450   9   0.00   1.00416   3 ;     C2-    O5-    C7-   C10
   427   446   447   456   9   0.00   1.41001   3 ;     C2-    O5-    C7-   H16
   428   426   429   430   9   0.00   0.46024   1 ;     C3-    C1-    C4-    C5
   428   426   429   430   9   0.00   0.54392   3 ;     C3-    C1-    C4-    C5
   428   426   429   430   9   180.00   1.21336   2 ;     C3-    C1-    C4-    C5
   428   426   429   433   9   0.00   0.65084   3 ;     C3-    C1-    C4-    H4
   428   426   429   436   9   0.00   0.87864   3 ;     C3-    C1-    C4-    O1
   428   440   427   430   9   0.00   0.00000   0 ;     C3-    O3-    C2-    C5
   428   440   427   430   9   0.00   0.66944   2 ;     C3-    O3-    C2-    C5
   428   440   427   430   9   0.00   1.00416   3 ;     C3-    O3-    C2-    C5
   428   440   427   431   9   0.00   1.60387   3 ;     C3-    O3-    C2-    H2
   428   440   427   446   9   0.00   5.18816   2 ;     C3-    O3-    C2-    O5
   428   440   427   446   9   180.00   0.00000   3 ;     C3-    O3-    C2-    O5
   428   440   427   446   9   180.00   4.05848   1 ;     C3-    O3-    C2-    O5
   428   441   444   445   9   0.00   0.00000   0 ;     C3-    C6-    O4-   H11
   429   426   428   435   9   0.00   0.65084   3 ;     C4-    C1-    C3-    H6
   429   426   428   440   9   0.00   0.65084   3 ;     C4-    C1-    C3-    O3
   429   426   428   441   9   0.00   0.46024   1 ;     C4-    C1-    C3-    C6
   429   426   428   441   9   0.00   0.54392   3 ;     C4-    C1-    C3-    C6
   429   426   428   441   9   180.00   1.21336   2 ;     C4-    C1-    C3-    C6
   429   430   427   431   9   0.00   0.65084   3 ;     C4-    C5-    C2-    H2
   429   430   427   440   9   0.00   0.65084   3 ;     C4-    C5-    C2-    O3
   429   430   427   446   9   0.00   0.65084   3 ;     C4-    C5-    C2-    O5
   429   430   438   439   9   0.00   0.00000   0 ;     C4-    C5-    O2-    H8
   430   427   446   447   9   0.00   0.00000   0 ;     C5-    C2-    O5-    C7
   430   427   446   447   9   0.00   0.66944   2 ;     C5-    C2-    O5-    C7
   430   427   446   447   9   0.00   1.00416   3 ;     C5-    C2-    O5-    C7
   430   429   426   432   9   0.00   0.33472   3 ;     C5-    C4-    C1-    H3
   430   429   436   437   9   0.00   0.00000   0 ;     C5-    C4-    O1-    H7
   431   427   430   434   9   0.00   0.65084   3 ;     H2-    C2-    C5-    H5
   431   427   430   438   9   0.00   0.65084   3 ;     H2-    C2-    C5-    O2
   431   427   446   447   9   0.00   1.60387   3 ;     H2-    C2-    O5-    C7
   432   426   428   435   9   0.00   0.65084   3 ;     H3-    C1-    C3-    H6
   432   426   428   440   9   0.00   0.00000   0 ;     H3-    C1-    C3-    O3
   432   426   428   440   9   0.00   1.04600   1 ;     H3-    C1-    C3-    O3
   432   426   428   441   9   0.00   0.33472   3 ;     H3-    C1-    C3-    C6
   432   426   429   433   9   0.00   0.65084   3 ;     H3-    C1-    C4-    H4
   432   426   429   436   9   0.00   0.75312   3 ;     H3-    C1-    C4-    O1
   432   426   429   436   9   0.00   2.13384   1 ;     H3-    C1-    C4-    O1
   433   429   430   434   9   0.00   0.65084   3 ;     H4-    C4-    C5-    H5
   433   429   430   438   9   0.00   0.00000   0 ;     H4-    C4-    C5-    O2
   433   429   430   438   9   0.00   1.04600   1 ;     H4-    C4-    C5-    O2
   433   429   436   437   9   0.00   0.47279   3 ;     H4-    C4-    O1-    H7
   434   430   427   440   9   0.00   0.00000   0 ;     H5-    C5-    C2-    O3
   434   430   427   440   9   0.00   1.04600   1 ;     H5-    C5-    C2-    O3
   434   430   427   446   9   0.00   0.00000   0 ;     H5-    C5-    C2-    O5
   434   430   427   446   9   0.00   1.04600   1 ;     H5-    C5-    C2-    O5
   434   430   429   436   9   0.00   0.00000   0 ;     H5-    C5-    C4-    O1
   434   430   429   436   9   0.00   1.04600   1 ;     H5-    C5-    C4-    O1
   434   430   438   439   9   0.00   0.47279   3 ;     H5-    C5-    O2-    H8
   435   428   441   442   9   0.00   0.65084   3 ;     H6-    C3-    C6-    H9
   435   428   441   443   9   0.00   0.65084   3 ;     H6-    C3-    C6-   H10
   435   428   441   444   9   0.00   0.00000   0 ;     H6-    C3-    C6-    O4
   435   428   441   444   9   0.00   1.04600   1 ;     H6-    C3-    C6-    O4
   436   429   430   438   9   0.00   3.76560   3 ;     O1-    C4-    C5-    O2
   436   429   430   438   9   0.00   4.72792   2 ;     O1-    C4-    C5-    O2
   438   430   427   440   9   0.00   0.00000   0 ;     O2-    C5-    C2-    O3
   438   430   427   440   9   0.00   4.22584   3 ;     O2-    C5-    C2-    O3
   438   430   427   440   9   180.00   0.08368   1 ;     O2-    C5-    C2-    O3
   438   430   427   446   9   0.00   0.00000   0 ;     O2-    C5-    C2-    O5
   438   430   427   446   9   0.00   4.22584   3 ;     O2-    C5-    C2-    O5
   438   430   427   446   9   180.00   0.08368   1 ;     O2-    C5-    C2-    O5
   440   427   446   447   9   0.00   5.18816   2 ;     O3-    C2-    O5-    C7
   440   427   446   447   9   180.00   0.00000   3 ;     O3-    C2-    O5-    C7
   440   427   446   447   9   180.00   4.05848   1 ;     O3-    C2-    O5-    C7
   440   428   441   442   9   0.00   0.00000   0 ;     O3-    C3-    C6-    H9
   440   428   441   442   9   0.00   1.04600   1 ;     O3-    C3-    C6-    H9
   440   428   441   443   9   0.00   0.00000   0 ;     O3-    C3-    C6-   H10
   440   428   441   443   9   0.00   1.04600   1 ;     O3-    C3-    C6-   H10
   440   428   441   444   9   0.00   0.00000   0 ;     O3-    C3-    C6-    O4
   440   428   441   444   9   0.00   4.22584   3 ;     O3-    C3-    C6-    O4
   440   428   441   444   9   180.00   0.08368   1 ;     O3-    C3-    C6-    O4
   442   441   444   445   9   0.00   0.47279   3 ;     H9-    C6-    O4-   H11
   443   441   444   445   9   0.00   0.47279   3 ;    H10-    C6-    O4-   H11
   446   447   449   448   9   0.00   0.65084   3 ;     O5-    C7-    C9-    C8
   446   447   449   452   9   0.00   0.00000   0 ;     O5-    C7-    C9-   H12
   446   447   449   452   9   0.00   1.04600   1 ;     O5-    C7-    C9-   H12
   446   447   449   465   9   0.00   0.00000   0 ;     O5-    C7-    C9-    O9
   446   447   449   465   9   0.00   4.22584   3 ;     O5-    C7-    C9-    O9
   446   447   449   465   9   180.00   0.08368   1 ;     O5-    C7-    C9-    O9
   446   447   450   454   9   0.00   0.00000   0 ;     O5-    C7-   C10-   H14
   446   447   450   454   9   0.00   1.04600   1 ;     O5-    C7-   C10-   H14
   446   447   450   457   9   0.00   0.00000   0 ;     O5-    C7-   C10-    O6
   446   447   450   457   9   180.00   0.00000   2 ;     O5-    C7-   C10-    O6
   446   447   450   457   9   180.00   0.71128   1 ;     O5-    C7-   C10-    O6
   446   447   450   458   9   0.00   0.65084   3 ;     O5-    C7-   C10-   C12
   447   449   448   451   9   0.00   0.46024   1 ;     C7-    C9-    C8-   C11
   447   449   448   451   9   0.00   0.54392   3 ;     C7-    C9-    C8-   C11
   447   449   448   451   9   180.00   1.21336   2 ;     C7-    C9-    C8-   C11
   447   449   448   453   9   0.00   0.65084   3 ;     C7-    C9-    C8-   H13
   447   449   448   463   9   0.00   0.87864   3 ;     C7-    C9-    C8-    O8
   447   449   465   466   9   0.00   0.00000   0 ;     C7-    C9-    O9-   H21
   447   450   457   451   9   0.00   0.00000   0 ;     C7-   C10-    O6-   C11
   447   450   457   451   9   0.00   0.66944   2 ;     C7-   C10-    O6-   C11
   447   450   457   451   9   0.00   1.00416   3 ;     C7-   C10-    O6-   C11
   447   450   458   459   9   0.00   0.65084   3 ;     C7-   C10-   C12-   H17
   447   450   458   460   9   0.00   0.65084   3 ;     C7-   C10-   C12-   H18
   447   450   458   461   9   0.00   0.87864   3 ;     C7-   C10-   C12-    O7
   448   449   447   450   9   0.00   0.46024   1 ;     C8-    C9-    C7-   C10
   448   449   447   450   9   0.00   0.54392   3 ;     C8-    C9-    C7-   C10
   448   449   447   450   9   180.00   1.21336   2 ;     C8-    C9-    C7-   C10
   448   449   447   456   9   0.00   0.65084   3 ;     C8-    C9-    C7-   H16
   448   449   465   466   9   0.00   0.00000   0 ;     C8-    C9-    O9-   H21
   448   451   457   450   9   0.00   0.00000   0 ;     C8-   C11-    O6-   C10
   448   451   457   450   9   0.00   0.66944   2 ;     C8-   C11-    O6-   C10
   448   451   457   450   9   0.00   1.00416   3 ;     C8-   C11-    O6-   C10
   448   451   467   468   9   0.00   0.00000   0 ;     C8-   C11-   O10-   C13
   448   451   467   468   9   0.00   0.66944   2 ;     C8-   C11-   O10-   C13
   448   451   467   468   9   0.00   1.00416   3 ;     C8-   C11-   O10-   C13
   449   447   450   454   9   0.00   0.65084   3 ;     C9-    C7-   C10-   H14
   449   447   450   457   9   0.00   0.65084   3 ;     C9-    C7-   C10-    O6
   449   447   450   458   9   0.00   0.46024   1 ;     C9-    C7-   C10-   C12
   449   447   450   458   9   0.00   0.54392   3 ;     C9-    C7-   C10-   C12
   449   447   450   458   9   180.00   1.21336   2 ;     C9-    C7-   C10-   C12
   449   448   451   455   9   0.00   0.65084   3 ;     C9-    C8-   C11-   H15
   449   448   451   457   9   0.00   0.65084   3 ;     C9-    C8-   C11-    O6
   449   448   451   467   9   0.00   0.65084   3 ;     C9-    C8-   C11-   O10
   449   448   463   464   9   0.00   0.00000   0 ;     C9-    C8-    O8-   H20
   450   447   449   452   9   0.00   0.65084   3 ;    C10-    C7-    C9-   H12
   450   447   449   465   9   0.00   0.87864   3 ;    C10-    C7-    C9-    O9
   450   457   451   455   9   0.00   1.60387   3 ;    C10-    O6-   C11-   H15
   450   457   451   467   9   0.00   5.18816   2 ;    C10-    O6-   C11-   O10
   450   457   451   467   9   180.00   0.00000   3 ;    C10-    O6-   C11-   O10
   450   457   451   467   9   180.00   4.05848   1 ;    C10-    O6-   C11-   O10
   450   458   461   462   9   0.00   0.00000   0 ;    C10-   C12-    O7-   H19
   451   448   449   452   9   0.00   0.65084   3 ;    C11-    C8-    C9-   H12
   451   448   449   465   9   0.00   0.87864   3 ;    C11-    C8-    C9-    O9
   451   448   463   464   9   0.00   0.00000   0 ;    C11-    C8-    O8-   H20
   451   457   450   454   9   0.00   1.41001   3 ;    C11-    O6-   C10-   H14
   451   457   450   458   9   0.00   0.00000   0 ;    C11-    O6-   C10-   C12
   451   457   450   458   9   0.00   0.66944   2 ;    C11-    O6-   C10-   C12
   451   457   450   458   9   0.00   1.00416   3 ;    C11-    O6-   C10-   C12
   451   467   468   470   9   0.00   0.00000   0 ;    C11-   O10-   C13-   C15
   451   467   468   470   9   0.00   0.66944   2 ;    C11-   O10-   C13-   C15
   451   467   468   470   9   0.00   1.00416   3 ;    C11-   O10-   C13-   C15
   451   467   468   471   9   0.00   0.00000   0 ;    C11-   O10-   C13-   C16
   451   467   468   471   9   0.00   0.66944   2 ;    C11-   O10-   C13-   C16
   451   467   468   471   9   0.00   1.00416   3 ;    C11-   O10-   C13-   C16
   451   467   468   474   9   0.00   1.41001   3 ;    C11-   O10-   C13-   H23
   452   449   447   456   9   0.00   0.65084   3 ;    H12-    C9-    C7-   H16
   452   449   448   453   9   0.00   0.65084   3 ;    H12-    C9-    C8-   H13
   452   449   448   463   9   0.00   0.00000   0 ;    H12-    C9-    C8-    O8
   452   449   448   463   9   0.00   1.04600   1 ;    H12-    C9-    C8-    O8
   452   449   465   466   9   0.00   0.47279   3 ;    H12-    C9-    O9-   H21
   453   448   449   465   9   0.00   0.00000   0 ;    H13-    C8-    C9-    O9
   453   448   449   465   9   0.00   1.04600   1 ;    H13-    C8-    C9-    O9
   453   448   451   455   9   0.00   0.65084   3 ;    H13-    C8-   C11-   H15
   453   448   451   457   9   0.00   0.00000   0 ;    H13-    C8-   C11-    O6
   453   448   451   457   9   0.00   1.04600   1 ;    H13-    C8-   C11-    O6
   453   448   451   467   9   0.00   0.00000   0 ;    H13-    C8-   C11-   O10
   453   448   451   467   9   0.00   1.04600   1 ;    H13-    C8-   C11-   O10
   453   448   463   464   9   0.00   0.47279   3 ;    H13-    C8-    O8-   H20
   454   450   447   456   9   0.00   0.65084   3 ;    H14-   C10-    C7-   H16
   454   450   458   459   9   0.00   0.65084   3 ;    H14-   C10-   C12-   H17
   454   450   458   460   9   0.00   0.65084   3 ;    H14-   C10-   C12-   H18
   454   450   458   461   9   0.00   0.00000   0 ;    H14-   C10-   C12-    O7
   454   450   458   461   9   0.00   1.04600   1 ;    H14-   C10-   C12-    O7
   455   451   448   463   9   0.00   0.65084   3 ;    H15-   C11-    C8-    O8
   455   451   467   468   9   0.00   1.60387   3 ;    H15-   C11-   O10-   C13
   456   447   449   465   9   0.00   0.00000   0 ;    H16-    C7-    C9-    O9
   456   447   449   465   9   0.00   1.04600   1 ;    H16-    C7-    C9-    O9
   456   447   450   457   9   0.00   0.00000   0 ;    H16-    C7-   C10-    O6
   456   447   450   457   9   0.00   1.04600   1 ;    H16-    C7-   C10-    O6
   456   447   450   458   9   0.00   0.65084   3 ;    H16-    C7-   C10-   C12
   457   450   458   459   9   0.00   0.00000   0 ;     O6-   C10-   C12-   H17
   457   450   458   459   9   0.00   1.04600   1 ;     O6-   C10-   C12-   H17
   457   450   458   460   9   0.00   0.00000   0 ;     O6-   C10-   C12-   H18
   457   450   458   460   9   0.00   1.04600   1 ;     O6-   C10-   C12-   H18
   457   450   458   461   9   0.00   0.00000   0 ;     O6-   C10-   C12-    O7
   457   450   458   461   9   0.00   4.22584   3 ;     O6-   C10-   C12-    O7
   457   450   458   461   9   180.00   0.08368   1 ;     O6-   C10-   C12-    O7
   457   451   448   463   9   0.00   0.00000   0 ;     O6-   C11-    C8-    O8
   457   451   448   463   9   0.00   4.22584   3 ;     O6-   C11-    C8-    O8
   457   451   448   463   9   180.00   0.08368   1 ;     O6-   C11-    C8-    O8
   457   451   467   468   9   0.00   5.18816   2 ;     O6-   C11-   O10-   C13
   457   451   467   468   9   180.00   0.00000   3 ;     O6-   C11-   O10-   C13
   457   451   467   468   9   180.00   4.05848   1 ;     O6-   C11-   O10-   C13
   459   458   461   462   9   0.00   0.47279   3 ;    H17-   C12-    O7-   H19
   460   458   461   462   9   0.00   0.47279   3 ;    H18-   C12-    O7-   H19
   463   448   449   465   9   0.00   3.76560   3 ;     O8-    C8-    C9-    O9
   463   448   449   465   9   0.00   4.72792   2 ;     O8-    C8-    C9-    O9
   463   448   451   467   9   0.00   0.00000   0 ;     O8-    C8-   C11-   O10
   463   448   451   467   9   0.00   4.22584   3 ;     O8-    C8-   C11-   O10
   463   448   451   467   9   180.00   0.08368   1 ;     O8-    C8-   C11-   O10
   467   468   470   477   9   0.00   0.00000   0 ;    O10-   C13-   C15-   H26
   467   468   470   477   9   0.00   1.04600   1 ;    O10-   C13-   C15-   H26
   467   468   470   482   9   0.00   0.00000   0 ;    O10-   C13-   C15-   O13
   467   468   470   482   9   180.00   0.00000   2 ;    O10-   C13-   C15-   O13
   467   468   470   482   9   180.00   0.71128   1 ;    O10-   C13-   C15-   O13
   467   468   470   483   9   0.00   0.65084   3 ;    O10-   C13-   C15-   C18
   467   468   471   472   9   0.00   0.65084   3 ;    O10-   C13-   C16-   C17
   467   468   471   475   9   0.00   0.00000   0 ;    O10-   C13-   C16-   H24
   467   468   471   475   9   0.00   1.04600   1 ;    O10-   C13-   C16-   H24
   467   468   471   478   9   0.00   0.00000   0 ;    O10-   C13-   C16-   O11
   467   468   471   478   9   0.00   4.22584   3 ;    O10-   C13-   C16-   O11
   467   468   471   478   9   180.00   0.08368   1 ;    O10-   C13-   C16-   O11
   468   470   482   469   9   0.00   0.00000   0 ;    C13-   C15-   O13-   C14
   468   470   482   469   9   0.00   0.66944   2 ;    C13-   C15-   O13-   C14
   468   470   482   469   9   0.00   1.00416   3 ;    C13-   C15-   O13-   C14
   468   470   483   484   9   0.00   0.65084   3 ;    C13-   C15-   C18-   H29
   468   470   483   485   9   0.00   0.65084   3 ;    C13-   C15-   C18-   H30
   468   470   483   486   9   0.00   0.87864   3 ;    C13-   C15-   C18-   O14
   468   471   472   469   9   0.00   0.46024   1 ;    C13-   C16-   C17-   C14
   468   471   472   469   9   0.00   0.54392   3 ;    C13-   C16-   C17-   C14
   468   471   472   469   9   180.00   1.21336   2 ;    C13-   C16-   C17-   C14
   468   471   472   476   9   0.00   0.65084   3 ;    C13-   C16-   C17-   H25
   468   471   472   480   9   0.00   0.87864   3 ;    C13-   C16-   C17-   O12
   468   471   478   479   9   0.00   0.00000   0 ;    C13-   C16-   O11-   H27
   469   472   471   475   9   0.00   0.65084   3 ;    C14-   C17-   C16-   H24
   469   472   471   478   9   0.00   0.87864   3 ;    C14-   C17-   C16-   O11
   469   472   480   481   9   0.00   0.00000   0 ;    C14-   C17-   O12-   H28
   469   482   470   477   9   0.00   1.41001   3 ;    C14-   O13-   C15-   H26
   469   482   470   483   9   0.00   0.00000   0 ;    C14-   O13-   C15-   C18
   469   482   470   483   9   0.00   0.66944   2 ;    C14-   O13-   C15-   C18
   469   482   470   483   9   0.00   1.00416   3 ;    C14-   O13-   C15-   C18
   469   488   489   491   9   0.00   0.00000   0 ;    C14-   O15-   C19-   C21
   469   488   489   491   9   0.00   0.66944   2 ;    C14-   O15-   C19-   C21
   469   488   489   491   9   0.00   1.00416   3 ;    C14-   O15-   C19-   C21
   469   488   489   492   9   0.00   0.00000   0 ;    C14-   O15-   C19-   C22
   469   488   489   492   9   0.00   0.66944   2 ;    C14-   O15-   C19-   C22
   469   488   489   492   9   0.00   1.00416   3 ;    C14-   O15-   C19-   C22
   469   488   489   498   9   0.00   1.41001   3 ;    C14-   O15-   C19-   H36
   470   468   471   472   9   0.00   0.46024   1 ;    C15-   C13-   C16-   C17
   470   468   471   472   9   0.00   0.54392   3 ;    C15-   C13-   C16-   C17
   470   468   471   472   9   180.00   1.21336   2 ;    C15-   C13-   C16-   C17
   470   468   471   475   9   0.00   0.65084   3 ;    C15-   C13-   C16-   H24
   470   468   471   478   9   0.00   0.87864   3 ;    C15-   C13-   C16-   O11
   470   482   469   472   9   0.00   0.00000   0 ;    C15-   O13-   C14-   C17
   470   482   469   472   9   0.00   0.66944   2 ;    C15-   O13-   C14-   C17
   470   482   469   472   9   0.00   1.00416   3 ;    C15-   O13-   C14-   C17
   470   482   469   473   9   0.00   1.60387   3 ;    C15-   O13-   C14-   H22
   470   482   469   488   9   0.00   5.18816   2 ;    C15-   O13-   C14-   O15
   470   482   469   488   9   180.00   0.00000   3 ;    C15-   O13-   C14-   O15
   470   482   469   488   9   180.00   4.05848   1 ;    C15-   O13-   C14-   O15
   470   483   486   487   9   0.00   0.00000   0 ;    C15-   C18-   O14-   H31
   471   468   470   477   9   0.00   0.65084   3 ;    C16-   C13-   C15-   H26
   471   468   470   482   9   0.00   0.65084   3 ;    C16-   C13-   C15-   O13
   471   468   470   483   9   0.00   0.46024   1 ;    C16-   C13-   C15-   C18
   471   468   470   483   9   0.00   0.54392   3 ;    C16-   C13-   C15-   C18
   471   468   470   483   9   180.00   1.21336   2 ;    C16-   C13-   C15-   C18
   471   472   469   473   9   0.00   0.65084   3 ;    C16-   C17-   C14-   H22
   471   472   469   482   9   0.00   0.65084   3 ;    C16-   C17-   C14-   O13
   471   472   469   488   9   0.00   0.65084   3 ;    C16-   C17-   C14-   O15
   471   472   480   481   9   0.00   0.00000   0 ;    C16-   C17-   O12-   H28
   472   469   488   489   9   0.00   0.00000   0 ;    C17-   C14-   O15-   C19
   472   469   488   489   9   0.00   0.66944   2 ;    C17-   C14-   O15-   C19
   472   469   488   489   9   0.00   1.00416   3 ;    C17-   C14-   O15-   C19
   472   471   468   474   9   0.00   0.65084   3 ;    C17-   C16-   C13-   H23
   472   471   478   479   9   0.00   0.00000   0 ;    C17-   C16-   O11-   H27
   473   469   472   476   9   0.00   0.65084   3 ;    H22-   C14-   C17-   H25
   473   469   472   480   9   0.00   0.65084   3 ;    H22-   C14-   C17-   O12
   473   469   488   489   9   0.00   1.60387   3 ;    H22-   C14-   O15-   C19
   474   468   470   477   9   0.00   0.65084   3 ;    H23-   C13-   C15-   H26
   474   468   470   482   9   0.00   0.00000   0 ;    H23-   C13-   C15-   O13
   474   468   470   482   9   0.00   1.04600   1 ;    H23-   C13-   C15-   O13
   474   468   470   483   9   0.00   0.65084   3 ;    H23-   C13-   C15-   C18
   474   468   471   475   9   0.00   0.65084   3 ;    H23-   C13-   C16-   H24
   474   468   471   478   9   0.00   0.00000   0 ;    H23-   C13-   C16-   O11
   474   468   471   478   9   0.00   1.04600   1 ;    H23-   C13-   C16-   O11
   475   471   472   476   9   0.00   0.65084   3 ;    H24-   C16-   C17-   H25
   475   471   472   480   9   0.00   0.00000   0 ;    H24-   C16-   C17-   O12
   475   471   472   480   9   0.00   1.04600   1 ;    H24-   C16-   C17-   O12
   475   471   478   479   9   0.00   0.47279   3 ;    H24-   C16-   O11-   H27
   476   472   469   482   9   0.00   0.00000   0 ;    H25-   C17-   C14-   O13
   476   472   469   482   9   0.00   1.04600   1 ;    H25-   C17-   C14-   O13
   476   472   469   488   9   0.00   0.00000   0 ;    H25-   C17-   C14-   O15
   476   472   469   488   9   0.00   1.04600   1 ;    H25-   C17-   C14-   O15
   476   472   471   478   9   0.00   0.00000   0 ;    H25-   C17-   C16-   O11
   476   472   471   478   9   0.00   1.04600   1 ;    H25-   C17-   C16-   O11
   476   472   480   481   9   0.00   0.47279   3 ;    H25-   C17-   O12-   H28
   477   470   483   484   9   0.00   0.65084   3 ;    H26-   C15-   C18-   H29
   477   470   483   485   9   0.00   0.65084   3 ;    H26-   C15-   C18-   H30
   477   470   483   486   9   0.00   0.00000   0 ;    H26-   C15-   C18-   O14
   477   470   483   486   9   0.00   1.04600   1 ;    H26-   C15-   C18-   O14
   478   471   472   480   9   0.00   3.76560   3 ;    O11-   C16-   C17-   O12
   478   471   472   480   9   0.00   4.72792   2 ;    O11-   C16-   C17-   O12
   480   472   469   482   9   0.00   0.00000   0 ;    O12-   C17-   C14-   O13
   480   472   469   482   9   0.00   4.22584   3 ;    O12-   C17-   C14-   O13
   480   472   469   482   9   180.00   0.08368   1 ;    O12-   C17-   C14-   O13
   480   472   469   488   9   0.00   0.00000   0 ;    O12-   C17-   C14-   O15
   480   472   469   488   9   0.00   4.22584   3 ;    O12-   C17-   C14-   O15
   480   472   469   488   9   180.00   0.08368   1 ;    O12-   C17-   C14-   O15
   482   469   488   489   9   0.00   5.18816   2 ;    O13-   C14-   O15-   C19
   482   469   488   489   9   180.00   0.00000   3 ;    O13-   C14-   O15-   C19
   482   469   488   489   9   180.00   4.05848   1 ;    O13-   C14-   O15-   C19
   482   470   483   484   9   0.00   0.00000   0 ;    O13-   C15-   C18-   H29
   482   470   483   484   9   0.00   1.04600   1 ;    O13-   C15-   C18-   H29
   482   470   483   485   9   0.00   0.00000   0 ;    O13-   C15-   C18-   H30
   482   470   483   485   9   0.00   1.04600   1 ;    O13-   C15-   C18-   H30
   482   470   483   486   9   0.00   0.00000   0 ;    O13-   C15-   C18-   O14
   482   470   483   486   9   0.00   4.22584   3 ;    O13-   C15-   C18-   O14
   482   470   483   486   9   180.00   0.08368   1 ;    O13-   C15-   C18-   O14
   484   483   486   487   9   0.00   0.47279   3 ;    H29-   C18-   O14-   H31
   485   483   486   487   9   0.00   0.47279   3 ;    H30-   C18-   O14-   H31
   488   489   491   490   9   0.00   0.65084   3 ;    O15-   C19-   C21-   C20
   488   489   491   494   9   0.00   0.00000   0 ;    O15-   C19-   C21-   H32
   488   489   491   494   9   0.00   1.04600   1 ;    O15-   C19-   C21-   H32
   488   489   491   507   9   0.00   0.00000   0 ;    O15-   C19-   C21-   O19
   488   489   491   507   9   0.00   4.22584   3 ;    O15-   C19-   C21-   O19
   488   489   491   507   9   180.00   0.08368   1 ;    O15-   C19-   C21-   O19
   488   489   492   496   9   0.00   0.00000   0 ;    O15-   C19-   C22-   H34
   488   489   492   496   9   0.00   1.04600   1 ;    O15-   C19-   C22-   H34
   488   489   492   499   9   0.00   0.00000   0 ;    O15-   C19-   C22-   O16
   488   489   492   499   9   180.00   0.00000   2 ;    O15-   C19-   C22-   O16
   488   489   492   499   9   180.00   0.71128   1 ;    O15-   C19-   C22-   O16
   488   489   492   500   9   0.00   0.65084   3 ;    O15-   C19-   C22-   C24
   489   491   490   493   9   0.00   0.46024   1 ;    C19-   C21-   C20-   C23
   489   491   490   493   9   0.00   0.54392   3 ;    C19-   C21-   C20-   C23
   489   491   490   493   9   180.00   1.21336   2 ;    C19-   C21-   C20-   C23
   489   491   490   495   9   0.00   0.65084   3 ;    C19-   C21-   C20-   H33
   489   491   490   505   9   0.00   0.87864   3 ;    C19-   C21-   C20-   O18
   489   491   507   508   9   0.00   0.00000   0 ;    C19-   C21-   O19-   H41
   489   492   499   493   9   0.00   0.00000   0 ;    C19-   C22-   O16-   C23
   489   492   499   493   9   0.00   0.66944   2 ;    C19-   C22-   O16-   C23
   489   492   499   493   9   0.00   1.00416   3 ;    C19-   C22-   O16-   C23
   489   492   500   501   9   0.00   0.65084   3 ;    C19-   C22-   C24-   H37
   489   492   500   502   9   0.00   0.65084   3 ;    C19-   C22-   C24-   H38
   489   492   500   503   9   0.00   0.87864   3 ;    C19-   C22-   C24-   O17
   490   491   489   492   9   0.00   0.46024   1 ;    C20-   C21-   C19-   C22
   490   491   489   492   9   0.00   0.54392   3 ;    C20-   C21-   C19-   C22
   490   491   489   492   9   180.00   1.21336   2 ;    C20-   C21-   C19-   C22
   490   491   489   498   9   0.00   0.65084   3 ;    C20-   C21-   C19-   H36
   490   491   507   508   9   0.00   0.00000   0 ;    C20-   C21-   O19-   H41
   490   493   499   492   9   0.00   0.00000   0 ;    C20-   C23-   O16-   C22
   490   493   499   492   9   0.00   0.66944   2 ;    C20-   C23-   O16-   C22
   490   493   499   492   9   0.00   1.00416   3 ;    C20-   C23-   O16-   C22
   490   493   509   510   9   0.00   0.00000   0 ;    C20-   C23-   O20-   C25
   490   493   509   510   9   0.00   0.66944   2 ;    C20-   C23-   O20-   C25
   490   493   509   510   9   0.00   1.00416   3 ;    C20-   C23-   O20-   C25
   491   489   492   496   9   0.00   0.65084   3 ;    C21-   C19-   C22-   H34
   491   489   492   499   9   0.00   0.65084   3 ;    C21-   C19-   C22-   O16
   491   489   492   500   9   0.00   0.46024   1 ;    C21-   C19-   C22-   C24
   491   489   492   500   9   0.00   0.54392   3 ;    C21-   C19-   C22-   C24
   491   489   492   500   9   180.00   1.21336   2 ;    C21-   C19-   C22-   C24
   491   490   493   497   9   0.00   0.65084   3 ;    C21-   C20-   C23-   H35
   491   490   493   499   9   0.00   0.65084   3 ;    C21-   C20-   C23-   O16
   491   490   493   509   9   0.00   0.65084   3 ;    C21-   C20-   C23-   O20
   491   490   505   506   9   0.00   0.00000   0 ;    C21-   C20-   O18-   H40
   492   489   491   494   9   0.00   0.65084   3 ;    C22-   C19-   C21-   H32
   492   489   491   507   9   0.00   0.87864   3 ;    C22-   C19-   C21-   O19
   492   499   493   497   9   0.00   1.60387   3 ;    C22-   O16-   C23-   H35
   492   499   493   509   9   0.00   5.18816   2 ;    C22-   O16-   C23-   O20
   492   499   493   509   9   180.00   0.00000   3 ;    C22-   O16-   C23-   O20
   492   499   493   509   9   180.00   4.05848   1 ;    C22-   O16-   C23-   O20
   492   500   503   504   9   0.00   0.00000   0 ;    C22-   C24-   O17-   H39
   493   490   491   494   9   0.00   0.65084   3 ;    C23-   C20-   C21-   H32
   493   490   491   507   9   0.00   0.87864   3 ;    C23-   C20-   C21-   O19
   493   490   505   506   9   0.00   0.00000   0 ;    C23-   C20-   O18-   H40
   493   499   492   496   9   0.00   1.41001   3 ;    C23-   O16-   C22-   H34
   493   499   492   500   9   0.00   0.00000   0 ;    C23-   O16-   C22-   C24
   493   499   492   500   9   0.00   0.66944   2 ;    C23-   O16-   C22-   C24
   493   499   492   500   9   0.00   1.00416   3 ;    C23-   O16-   C22-   C24
   493   509   510   512   9   0.00   0.00000   0 ;    C23-   O20-   C25-   C27
   493   509   510   512   9   0.00   0.66944   2 ;    C23-   O20-   C25-   C27
   493   509   510   512   9   0.00   1.00416   3 ;    C23-   O20-   C25-   C27
   493   509   510   513   9   0.00   0.00000   0 ;    C23-   O20-   C25-   C28
   493   509   510   513   9   0.00   0.66944   2 ;    C23-   O20-   C25-   C28
   493   509   510   513   9   0.00   1.00416   3 ;    C23-   O20-   C25-   C28
   493   509   510   516   9   0.00   1.41001   3 ;    C23-   O20-   C25-   H43
   494   491   489   498   9   0.00   0.65084   3 ;    H32-   C21-   C19-   H36
   494   491   490   495   9   0.00   0.65084   3 ;    H32-   C21-   C20-   H33
   494   491   490   505   9   0.00   0.00000   0 ;    H32-   C21-   C20-   O18
   494   491   490   505   9   0.00   1.04600   1 ;    H32-   C21-   C20-   O18
   494   491   507   508   9   0.00   0.47279   3 ;    H32-   C21-   O19-   H41
   495   490   491   507   9   0.00   0.00000   0 ;    H33-   C20-   C21-   O19
   495   490   491   507   9   0.00   1.04600   1 ;    H33-   C20-   C21-   O19
   495   490   493   497   9   0.00   0.65084   3 ;    H33-   C20-   C23-   H35
   495   490   493   499   9   0.00   0.00000   0 ;    H33-   C20-   C23-   O16
   495   490   493   499   9   0.00   1.04600   1 ;    H33-   C20-   C23-   O16
   495   490   493   509   9   0.00   0.00000   0 ;    H33-   C20-   C23-   O20
   495   490   493   509   9   0.00   1.04600   1 ;    H33-   C20-   C23-   O20
   495   490   505   506   9   0.00   0.47279   3 ;    H33-   C20-   O18-   H40
   496   492   489   498   9   0.00   0.65084   3 ;    H34-   C22-   C19-   H36
   496   492   500   501   9   0.00   0.65084   3 ;    H34-   C22-   C24-   H37
   496   492   500   502   9   0.00   0.65084   3 ;    H34-   C22-   C24-   H38
   496   492   500   503   9   0.00   0.00000   0 ;    H34-   C22-   C24-   O17
   496   492   500   503   9   0.00   1.04600   1 ;    H34-   C22-   C24-   O17
   497   493   490   505   9   0.00   0.65084   3 ;    H35-   C23-   C20-   O18
   497   493   509   510   9   0.00   1.60387   3 ;    H35-   C23-   O20-   C25
   498   489   491   507   9   0.00   0.00000   0 ;    H36-   C19-   C21-   O19
   498   489   491   507   9   0.00   1.04600   1 ;    H36-   C19-   C21-   O19
   498   489   492   499   9   0.00   0.00000   0 ;    H36-   C19-   C22-   O16
   498   489   492   499   9   0.00   1.04600   1 ;    H36-   C19-   C22-   O16
   498   489   492   500   9   0.00   0.65084   3 ;    H36-   C19-   C22-   C24
   499   492   500   501   9   0.00   0.00000   0 ;    O16-   C22-   C24-   H37
   499   492   500   501   9   0.00   1.04600   1 ;    O16-   C22-   C24-   H37
   499   492   500   502   9   0.00   0.00000   0 ;    O16-   C22-   C24-   H38
   499   492   500   502   9   0.00   1.04600   1 ;    O16-   C22-   C24-   H38
   499   492   500   503   9   0.00   0.00000   0 ;    O16-   C22-   C24-   O17
   499   492   500   503   9   0.00   4.22584   3 ;    O16-   C22-   C24-   O17
   499   492   500   503   9   180.00   0.08368   1 ;    O16-   C22-   C24-   O17
   499   493   490   505   9   0.00   0.00000   0 ;    O16-   C23-   C20-   O18
   499   493   490   505   9   0.00   4.22584   3 ;    O16-   C23-   C20-   O18
   499   493   490   505   9   180.00   0.08368   1 ;    O16-   C23-   C20-   O18
   499   493   509   510   9   0.00   5.18816   2 ;    O16-   C23-   O20-   C25
   499   493   509   510   9   180.00   0.00000   3 ;    O16-   C23-   O20-   C25
   499   493   509   510   9   180.00   4.05848   1 ;    O16-   C23-   O20-   C25
   501   500   503   504   9   0.00   0.47279   3 ;    H37-   C24-   O17-   H39
   502   500   503   504   9   0.00   0.47279   3 ;    H38-   C24-   O17-   H39
   505   490   491   507   9   0.00   3.76560   3 ;    O18-   C20-   C21-   O19
   505   490   491   507   9   0.00   4.72792   2 ;    O18-   C20-   C21-   O19
   505   490   493   509   9   0.00   0.00000   0 ;    O18-   C20-   C23-   O20
   505   490   493   509   9   0.00   4.22584   3 ;    O18-   C20-   C23-   O20
   505   490   493   509   9   180.00   0.08368   1 ;    O18-   C20-   C23-   O20
   509   510   512   519   9   0.00   0.00000   0 ;    O20-   C25-   C27-   H46
   509   510   512   519   9   0.00   1.04600   1 ;    O20-   C25-   C27-   H46
   509   510   512   524   9   0.00   0.00000   0 ;    O20-   C25-   C27-   O23
   509   510   512   524   9   180.00   0.00000   2 ;    O20-   C25-   C27-   O23
   509   510   512   524   9   180.00   0.71128   1 ;    O20-   C25-   C27-   O23
   509   510   512   525   9   0.00   0.65084   3 ;    O20-   C25-   C27-   C30
   509   510   513   514   9   0.00   0.65084   3 ;    O20-   C25-   C28-   C29
   509   510   513   517   9   0.00   0.00000   0 ;    O20-   C25-   C28-   H44
   509   510   513   517   9   0.00   1.04600   1 ;    O20-   C25-   C28-   H44
   509   510   513   520   9   0.00   0.00000   0 ;    O20-   C25-   C28-   O21
   509   510   513   520   9   0.00   4.22584   3 ;    O20-   C25-   C28-   O21
   509   510   513   520   9   180.00   0.08368   1 ;    O20-   C25-   C28-   O21
   510   512   524   511   9   0.00   0.00000   0 ;    C25-   C27-   O23-   C26
   510   512   524   511   9   0.00   0.66944   2 ;    C25-   C27-   O23-   C26
   510   512   524   511   9   0.00   1.00416   3 ;    C25-   C27-   O23-   C26
   510   512   525   526   9   0.00   0.65084   3 ;    C25-   C27-   C30-   H49
   510   512   525   527   9   0.00   0.65084   3 ;    C25-   C27-   C30-   H50
   510   512   525   528   9   0.00   0.87864   3 ;    C25-   C27-   C30-   O24
   510   513   514   511   9   0.00   0.46024   1 ;    C25-   C28-   C29-   C26
   510   513   514   511   9   0.00   0.54392   3 ;    C25-   C28-   C29-   C26
   510   513   514   511   9   180.00   1.21336   2 ;    C25-   C28-   C29-   C26
   510   513   514   518   9   0.00   0.65084   3 ;    C25-   C28-   C29-   H45
   510   513   514   522   9   0.00   0.87864   3 ;    C25-   C28-   C29-   O22
   510   513   520   521   9   0.00   0.00000   0 ;    C25-   C28-   O21-   H47
   511   514   513   517   9   0.00   0.65084   3 ;    C26-   C29-   C28-   H44
   511   514   513   520   9   0.00   0.87864   3 ;    C26-   C29-   C28-   O21
   511   514   522   523   9   0.00   0.00000   0 ;    C26-   C29-   O22-   H48
   511   524   512   519   9   0.00   1.41001   3 ;    C26-   O23-   C27-   H46
   511   524   512   525   9   0.00   0.00000   0 ;    C26-   O23-   C27-   C30
   511   524   512   525   9   0.00   0.66944   2 ;    C26-   O23-   C27-   C30
   511   524   512   525   9   0.00   1.00416   3 ;    C26-   O23-   C27-   C30
   511   530   531   533   9   0.00   0.00000   0 ;    C26-   O25-   C31-   C33
   511   530   531   533   9   0.00   0.66944   2 ;    C26-   O25-   C31-   C33
   511   530   531   533   9   0.00   1.00416   3 ;    C26-   O25-   C31-   C33
   511   530   531   534   9   0.00   0.00000   0 ;    C26-   O25-   C31-   C34
   511   530   531   534   9   0.00   0.66944   2 ;    C26-   O25-   C31-   C34
   511   530   531   534   9   0.00   1.00416   3 ;    C26-   O25-   C31-   C34
   511   530   531   540   9   0.00   1.41001   3 ;    C26-   O25-   C31-   H56
   512   510   513   514   9   0.00   0.46024   1 ;    C27-   C25-   C28-   C29
   512   510   513   514   9   0.00   0.54392   3 ;    C27-   C25-   C28-   C29
   512   510   513   514   9   180.00   1.21336   2 ;    C27-   C25-   C28-   C29
   512   510   513   517   9   0.00   0.65084   3 ;    C27-   C25-   C28-   H44
   512   510   513   520   9   0.00   0.87864   3 ;    C27-   C25-   C28-   O21
   512   524   511   514   9   0.00   0.00000   0 ;    C27-   O23-   C26-   C29
   512   524   511   514   9   0.00   0.66944   2 ;    C27-   O23-   C26-   C29
   512   524   511   514   9   0.00   1.00416   3 ;    C27-   O23-   C26-   C29
   512   524   511   515   9   0.00   1.60387   3 ;    C27-   O23-   C26-   H42
   512   524   511   530   9   0.00   5.18816   2 ;    C27-   O23-   C26-   O25
   512   524   511   530   9   180.00   0.00000   3 ;    C27-   O23-   C26-   O25
   512   524   511   530   9   180.00   4.05848   1 ;    C27-   O23-   C26-   O25
   512   525   528   529   9   0.00   0.00000   0 ;    C27-   C30-   O24-   H51
   513   510   512   519   9   0.00   0.65084   3 ;    C28-   C25-   C27-   H46
   513   510   512   524   9   0.00   0.65084   3 ;    C28-   C25-   C27-   O23
   513   510   512   525   9   0.00   0.46024   1 ;    C28-   C25-   C27-   C30
   513   510   512   525   9   0.00   0.54392   3 ;    C28-   C25-   C27-   C30
   513   510   512   525   9   180.00   1.21336   2 ;    C28-   C25-   C27-   C30
   513   514   511   515   9   0.00   0.65084   3 ;    C28-   C29-   C26-   H42
   513   514   511   524   9   0.00   0.65084   3 ;    C28-   C29-   C26-   O23
   513   514   511   530   9   0.00   0.65084   3 ;    C28-   C29-   C26-   O25
   513   514   522   523   9   0.00   0.00000   0 ;    C28-   C29-   O22-   H48
   514   511   530   531   9   0.00   0.00000   0 ;    C29-   C26-   O25-   C31
   514   511   530   531   9   0.00   0.66944   2 ;    C29-   C26-   O25-   C31
   514   511   530   531   9   0.00   1.00416   3 ;    C29-   C26-   O25-   C31
   514   513   510   516   9   0.00   0.65084   3 ;    C29-   C28-   C25-   H43
   514   513   520   521   9   0.00   0.00000   0 ;    C29-   C28-   O21-   H47
   515   511   514   518   9   0.00   0.65084   3 ;    H42-   C26-   C29-   H45
   515   511   514   522   9   0.00   0.65084   3 ;    H42-   C26-   C29-   O22
   515   511   530   531   9   0.00   1.60387   3 ;    H42-   C26-   O25-   C31
   516   510   512   519   9   0.00   0.65084   3 ;    H43-   C25-   C27-   H46
   516   510   512   524   9   0.00   0.00000   0 ;    H43-   C25-   C27-   O23
   516   510   512   524   9   0.00   1.04600   1 ;    H43-   C25-   C27-   O23
   516   510   512   525   9   0.00   0.65084   3 ;    H43-   C25-   C27-   C30
   516   510   513   517   9   0.00   0.65084   3 ;    H43-   C25-   C28-   H44
   516   510   513   520   9   0.00   0.00000   0 ;    H43-   C25-   C28-   O21
   516   510   513   520   9   0.00   1.04600   1 ;    H43-   C25-   C28-   O21
   517   513   514   518   9   0.00   0.65084   3 ;    H44-   C28-   C29-   H45
   517   513   514   522   9   0.00   0.00000   0 ;    H44-   C28-   C29-   O22
   517   513   514   522   9   0.00   1.04600   1 ;    H44-   C28-   C29-   O22
   517   513   520   521   9   0.00   0.47279   3 ;    H44-   C28-   O21-   H47
   518   514   511   524   9   0.00   0.00000   0 ;    H45-   C29-   C26-   O23
   518   514   511   524   9   0.00   1.04600   1 ;    H45-   C29-   C26-   O23
   518   514   511   530   9   0.00   0.00000   0 ;    H45-   C29-   C26-   O25
   518   514   511   530   9   0.00   1.04600   1 ;    H45-   C29-   C26-   O25
   518   514   513   520   9   0.00   0.00000   0 ;    H45-   C29-   C28-   O21
   518   514   513   520   9   0.00   1.04600   1 ;    H45-   C29-   C28-   O21
   518   514   522   523   9   0.00   0.47279   3 ;    H45-   C29-   O22-   H48
   519   512   525   526   9   0.00   0.65084   3 ;    H46-   C27-   C30-   H49
   519   512   525   527   9   0.00   0.65084   3 ;    H46-   C27-   C30-   H50
   519   512   525   528   9   0.00   0.00000   0 ;    H46-   C27-   C30-   O24
   519   512   525   528   9   0.00   1.04600   1 ;    H46-   C27-   C30-   O24
   520   513   514   522   9   0.00   3.76560   3 ;    O21-   C28-   C29-   O22
   520   513   514   522   9   0.00   4.72792   2 ;    O21-   C28-   C29-   O22
   522   514   511   524   9   0.00   0.00000   0 ;    O22-   C29-   C26-   O23
   522   514   511   524   9   0.00   4.22584   3 ;    O22-   C29-   C26-   O23
   522   514   511   524   9   180.00   0.08368   1 ;    O22-   C29-   C26-   O23
   522   514   511   530   9   0.00   0.00000   0 ;    O22-   C29-   C26-   O25
   522   514   511   530   9   0.00   4.22584   3 ;    O22-   C29-   C26-   O25
   522   514   511   530   9   180.00   0.08368   1 ;    O22-   C29-   C26-   O25
   524   511   530   531   9   0.00   5.18816   2 ;    O23-   C26-   O25-   C31
   524   511   530   531   9   180.00   0.00000   3 ;    O23-   C26-   O25-   C31
   524   511   530   531   9   180.00   4.05848   1 ;    O23-   C26-   O25-   C31
   524   512   525   526   9   0.00   0.00000   0 ;    O23-   C27-   C30-   H49
   524   512   525   526   9   0.00   1.04600   1 ;    O23-   C27-   C30-   H49
   524   512   525   527   9   0.00   0.00000   0 ;    O23-   C27-   C30-   H50
   524   512   525   527   9   0.00   1.04600   1 ;    O23-   C27-   C30-   H50
   524   512   525   528   9   0.00   0.00000   0 ;    O23-   C27-   C30-   O24
   524   512   525   528   9   0.00   4.22584   3 ;    O23-   C27-   C30-   O24
   524   512   525   528   9   180.00   0.08368   1 ;    O23-   C27-   C30-   O24
   526   525   528   529   9   0.00   0.47279   3 ;    H49-   C30-   O24-   H51
   527   525   528   529   9   0.00   0.47279   3 ;    H50-   C30-   O24-   H51
   530   531   533   532   9   0.00   0.65084   3 ;    O25-   C31-   C33-   C32
   530   531   533   536   9   0.00   0.00000   0 ;    O25-   C31-   C33-   H52
   530   531   533   536   9   0.00   1.04600   1 ;    O25-   C31-   C33-   H52
   530   531   533   549   9   0.00   0.00000   0 ;    O25-   C31-   C33-   O29
   530   531   533   549   9   0.00   4.22584   3 ;    O25-   C31-   C33-   O29
   530   531   533   549   9   180.00   0.08368   1 ;    O25-   C31-   C33-   O29
   530   531   534   538   9   0.00   0.00000   0 ;    O25-   C31-   C34-   H54
   530   531   534   538   9   0.00   1.04600   1 ;    O25-   C31-   C34-   H54
   530   531   534   541   9   0.00   0.00000   0 ;    O25-   C31-   C34-   O26
   530   531   534   541   9   180.00   0.00000   2 ;    O25-   C31-   C34-   O26
   530   531   534   541   9   180.00   0.71128   1 ;    O25-   C31-   C34-   O26
   530   531   534   542   9   0.00   0.65084   3 ;    O25-   C31-   C34-   C36
   531   533   532   535   9   0.00   0.46024   1 ;    C31-   C33-   C32-   C35
   531   533   532   535   9   0.00   0.54392   3 ;    C31-   C33-   C32-   C35
   531   533   532   535   9   180.00   1.21336   2 ;    C31-   C33-   C32-   C35
   531   533   532   537   9   0.00   0.65084   3 ;    C31-   C33-   C32-   H53
   531   533   532   547   9   0.00   0.87864   3 ;    C31-   C33-   C32-   O28
   531   533   549   550   9   0.00   0.00000   0 ;    C31-   C33-   O29-   H61
   531   534   541   535   9   0.00   0.00000   0 ;    C31-   C34-   O26-   C35
   531   534   541   535   9   0.00   0.66944   2 ;    C31-   C34-   O26-   C35
   531   534   541   535   9   0.00   1.00416   3 ;    C31-   C34-   O26-   C35
   531   534   542   543   9   0.00   0.65084   3 ;    C31-   C34-   C36-   H57
   531   534   542   544   9   0.00   0.65084   3 ;    C31-   C34-   C36-   H58
   531   534   542   545   9   0.00   0.87864   3 ;    C31-   C34-   C36-   O27
   532   533   531   534   9   0.00   0.46024   1 ;    C32-   C33-   C31-   C34
   532   533   531   534   9   0.00   0.54392   3 ;    C32-   C33-   C31-   C34
   532   533   531   534   9   180.00   1.21336   2 ;    C32-   C33-   C31-   C34
   532   533   531   540   9   0.00   0.65084   3 ;    C32-   C33-   C31-   H56
   532   533   549   550   9   0.00   0.00000   0 ;    C32-   C33-   O29-   H61
   532   535   541   534   9   0.00   0.00000   0 ;    C32-   C35-   O26-   C34
   532   535   541   534   9   0.00   0.66944   2 ;    C32-   C35-   O26-   C34
   532   535   541   534   9   0.00   1.00416   3 ;    C32-   C35-   O26-   C34
   532   535   551   552   9   0.00   0.00000   0 ;    C32-   C35-   O30-   C37
   532   535   551   552   9   0.00   0.66944   2 ;    C32-   C35-   O30-   C37
   532   535   551   552   9   0.00   1.00416   3 ;    C32-   C35-   O30-   C37
   533   531   534   538   9   0.00   0.65084   3 ;    C33-   C31-   C34-   H54
   533   531   534   541   9   0.00   0.65084   3 ;    C33-   C31-   C34-   O26
   533   531   534   542   9   0.00   0.46024   1 ;    C33-   C31-   C34-   C36
   533   531   534   542   9   0.00   0.54392   3 ;    C33-   C31-   C34-   C36
   533   531   534   542   9   180.00   1.21336   2 ;    C33-   C31-   C34-   C36
   533   532   535   539   9   0.00   0.65084   3 ;    C33-   C32-   C35-   H55
   533   532   535   541   9   0.00   0.65084   3 ;    C33-   C32-   C35-   O26
   533   532   535   551   9   0.00   0.65084   3 ;    C33-   C32-   C35-   O30
   533   532   547   548   9   0.00   0.00000   0 ;    C33-   C32-   O28-   H60
   534   531   533   536   9   0.00   0.65084   3 ;    C34-   C31-   C33-   H52
   534   531   533   549   9   0.00   0.87864   3 ;    C34-   C31-   C33-   O29
   534   541   535   539   9   0.00   1.60387   3 ;    C34-   O26-   C35-   H55
   534   541   535   551   9   0.00   5.18816   2 ;    C34-   O26-   C35-   O30
   534   541   535   551   9   180.00   0.00000   3 ;    C34-   O26-   C35-   O30
   534   541   535   551   9   180.00   4.05848   1 ;    C34-   O26-   C35-   O30
   534   542   545   546   9   0.00   0.00000   0 ;    C34-   C36-   O27-   H59
   535   532   533   536   9   0.00   0.65084   3 ;    C35-   C32-   C33-   H52
   535   532   533   549   9   0.00   0.87864   3 ;    C35-   C32-   C33-   O29
   535   532   547   548   9   0.00   0.00000   0 ;    C35-   C32-   O28-   H60
   535   541   534   538   9   0.00   1.41001   3 ;    C35-   O26-   C34-   H54
   535   541   534   542   9   0.00   0.00000   0 ;    C35-   O26-   C34-   C36
   535   541   534   542   9   0.00   0.66944   2 ;    C35-   O26-   C34-   C36
   535   541   534   542   9   0.00   1.00416   3 ;    C35-   O26-   C34-   C36
   535   551   552   554   9   0.00   0.00000   0 ;    C35-   O30-   C37-   C39
   535   551   552   554   9   0.00   0.66944   2 ;    C35-   O30-   C37-   C39
   535   551   552   554   9   0.00   1.00416   3 ;    C35-   O30-   C37-   C39
   535   551   552   555   9   0.00   0.00000   0 ;    C35-   O30-   C37-   C40
   535   551   552   555   9   0.00   0.66944   2 ;    C35-   O30-   C37-   C40
   535   551   552   555   9   0.00   1.00416   3 ;    C35-   O30-   C37-   C40
   535   551   552   558   9   0.00   1.41001   3 ;    C35-   O30-   C37-   H63
   536   533   531   540   9   0.00   0.65084   3 ;    H52-   C33-   C31-   H56
   536   533   532   537   9   0.00   0.65084   3 ;    H52-   C33-   C32-   H53
   536   533   532   547   9   0.00   0.00000   0 ;    H52-   C33-   C32-   O28
   536   533   532   547   9   0.00   1.04600   1 ;    H52-   C33-   C32-   O28
   536   533   549   550   9   0.00   0.47279   3 ;    H52-   C33-   O29-   H61
   537   532   533   549   9   0.00   0.00000   0 ;    H53-   C32-   C33-   O29
   537   532   533   549   9   0.00   1.04600   1 ;    H53-   C32-   C33-   O29
   537   532   535   539   9   0.00   0.65084   3 ;    H53-   C32-   C35-   H55
   537   532   535   541   9   0.00   0.00000   0 ;    H53-   C32-   C35-   O26
   537   532   535   541   9   0.00   1.04600   1 ;    H53-   C32-   C35-   O26
   537   532   535   551   9   0.00   0.00000   0 ;    H53-   C32-   C35-   O30
   537   532   535   551   9   0.00   1.04600   1 ;    H53-   C32-   C35-   O30
   537   532   547   548   9   0.00   0.47279   3 ;    H53-   C32-   O28-   H60
   538   534   531   540   9   0.00   0.65084   3 ;    H54-   C34-   C31-   H56
   538   534   542   543   9   0.00   0.65084   3 ;    H54-   C34-   C36-   H57
   538   534   542   544   9   0.00   0.65084   3 ;    H54-   C34-   C36-   H58
   538   534   542   545   9   0.00   0.00000   0 ;    H54-   C34-   C36-   O27
   538   534   542   545   9   0.00   1.04600   1 ;    H54-   C34-   C36-   O27
   539   535   532   547   9   0.00   0.65084   3 ;    H55-   C35-   C32-   O28
   539   535   551   552   9   0.00   1.60387   3 ;    H55-   C35-   O30-   C37
   540   531   533   549   9   0.00   0.00000   0 ;    H56-   C31-   C33-   O29
   540   531   533   549   9   0.00   1.04600   1 ;    H56-   C31-   C33-   O29
   540   531   534   541   9   0.00   0.00000   0 ;    H56-   C31-   C34-   O26
   540   531   534   541   9   0.00   1.04600   1 ;    H56-   C31-   C34-   O26
   540   531   534   542   9   0.00   0.65084   3 ;    H56-   C31-   C34-   C36
   541   534   542   543   9   0.00   0.00000   0 ;    O26-   C34-   C36-   H57
   541   534   542   543   9   0.00   1.04600   1 ;    O26-   C34-   C36-   H57
   541   534   542   544   9   0.00   0.00000   0 ;    O26-   C34-   C36-   H58
   541   534   542   544   9   0.00   1.04600   1 ;    O26-   C34-   C36-   H58
   541   534   542   545   9   0.00   0.00000   0 ;    O26-   C34-   C36-   O27
   541   534   542   545   9   0.00   4.22584   3 ;    O26-   C34-   C36-   O27
   541   534   542   545   9   180.00   0.08368   1 ;    O26-   C34-   C36-   O27
   541   535   532   547   9   0.00   0.00000   0 ;    O26-   C35-   C32-   O28
   541   535   532   547   9   0.00   4.22584   3 ;    O26-   C35-   C32-   O28
   541   535   532   547   9   180.00   0.08368   1 ;    O26-   C35-   C32-   O28
   541   535   551   552   9   0.00   5.18816   2 ;    O26-   C35-   O30-   C37
   541   535   551   552   9   180.00   0.00000   3 ;    O26-   C35-   O30-   C37
   541   535   551   552   9   180.00   4.05848   1 ;    O26-   C35-   O30-   C37
   543   542   545   546   9   0.00   0.47279   3 ;    H57-   C36-   O27-   H59
   544   542   545   546   9   0.00   0.47279   3 ;    H58-   C36-   O27-   H59
   547   532   533   549   9   0.00   3.76560   3 ;    O28-   C32-   C33-   O29
   547   532   533   549   9   0.00   4.72792   2 ;    O28-   C32-   C33-   O29
   547   532   535   551   9   0.00   0.00000   0 ;    O28-   C32-   C35-   O30
   547   532   535   551   9   0.00   4.22584   3 ;    O28-   C32-   C35-   O30
   547   532   535   551   9   180.00   0.08368   1 ;    O28-   C32-   C35-   O30
   551   552   554   561   9   0.00   0.00000   0 ;    O30-   C37-   C39-   H66
   551   552   554   561   9   0.00   1.04600   1 ;    O30-   C37-   C39-   H66
   551   552   554   566   9   0.00   0.00000   0 ;    O30-   C37-   C39-   O33
   551   552   554   566   9   180.00   0.00000   2 ;    O30-   C37-   C39-   O33
   551   552   554   566   9   180.00   0.71128   1 ;    O30-   C37-   C39-   O33
   551   552   554   567   9   0.00   0.65084   3 ;    O30-   C37-   C39-   C42
   551   552   555   556   9   0.00   0.65084   3 ;    O30-   C37-   C40-   C41
   551   552   555   559   9   0.00   0.00000   0 ;    O30-   C37-   C40-   H64
   551   552   555   559   9   0.00   1.04600   1 ;    O30-   C37-   C40-   H64
   551   552   555   562   9   0.00   0.00000   0 ;    O30-   C37-   C40-   O31
   551   552   555   562   9   0.00   4.22584   3 ;    O30-   C37-   C40-   O31
   551   552   555   562   9   180.00   0.08368   1 ;    O30-   C37-   C40-   O31
   552   554   566   553   9   0.00   0.00000   0 ;    C37-   C39-   O33-   C38
   552   554   566   553   9   0.00   0.66944   2 ;    C37-   C39-   O33-   C38
   552   554   566   553   9   0.00   1.00416   3 ;    C37-   C39-   O33-   C38
   552   554   567   568   9   0.00   0.65084   3 ;    C37-   C39-   C42-   H69
   552   554   567   569   9   0.00   0.65084   3 ;    C37-   C39-   C42-   H70
   552   554   567   570   9   0.00   0.87864   3 ;    C37-   C39-   C42-   O34
   552   555   556   553   9   0.00   0.46024   1 ;    C37-   C40-   C41-   C38
   552   555   556   553   9   0.00   0.54392   3 ;    C37-   C40-   C41-   C38
   552   555   556   553   9   180.00   1.21336   2 ;    C37-   C40-   C41-   C38
   552   555   556   560   9   0.00   0.65084   3 ;    C37-   C40-   C41-   H65
   552   555   556   564   9   0.00   0.87864   3 ;    C37-   C40-   C41-   O32
   552   555   562   563   9   0.00   0.00000   0 ;    C37-   C40-   O31-   H67
   553   556   555   559   9   0.00   0.65084   3 ;    C38-   C41-   C40-   H64
   553   556   555   562   9   0.00   0.87864   3 ;    C38-   C41-   C40-   O31
   553   556   564   565   9   0.00   0.00000   0 ;    C38-   C41-   O32-   H68
   553   566   554   561   9   0.00   1.41001   3 ;    C38-   O33-   C39-   H66
   553   566   554   567   9   0.00   0.00000   0 ;    C38-   O33-   C39-   C42
   553   566   554   567   9   0.00   0.66944   2 ;    C38-   O33-   C39-   C42
   553   566   554   567   9   0.00   1.00416   3 ;    C38-   O33-   C39-   C42
   553   572   573   575   9   0.00   0.00000   0 ;    C38-   O35-   C43-   C45
   553   572   573   575   9   0.00   0.66944   2 ;    C38-   O35-   C43-   C45
   553   572   573   575   9   0.00   1.00416   3 ;    C38-   O35-   C43-   C45
   553   572   573   576   9   0.00   0.00000   0 ;    C38-   O35-   C43-   C46
   553   572   573   576   9   0.00   0.66944   2 ;    C38-   O35-   C43-   C46
   553   572   573   576   9   0.00   1.00416   3 ;    C38-   O35-   C43-   C46
   553   572   573   582   9   0.00   1.41001   3 ;    C38-   O35-   C43-   H76
   554   552   555   556   9   0.00   0.46024   1 ;    C39-   C37-   C40-   C41
   554   552   555   556   9   0.00   0.54392   3 ;    C39-   C37-   C40-   C41
   554   552   555   556   9   180.00   1.21336   2 ;    C39-   C37-   C40-   C41
   554   552   555   559   9   0.00   0.65084   3 ;    C39-   C37-   C40-   H64
   554   552   555   562   9   0.00   0.87864   3 ;    C39-   C37-   C40-   O31
   554   566   553   556   9   0.00   0.00000   0 ;    C39-   O33-   C38-   C41
   554   566   553   556   9   0.00   0.66944   2 ;    C39-   O33-   C38-   C41
   554   566   553   556   9   0.00   1.00416   3 ;    C39-   O33-   C38-   C41
   554   566   553   557   9   0.00   1.60387   3 ;    C39-   O33-   C38-   H62
   554   566   553   572   9   0.00   5.18816   2 ;    C39-   O33-   C38-   O35
   554   566   553   572   9   180.00   0.00000   3 ;    C39-   O33-   C38-   O35
   554   566   553   572   9   180.00   4.05848   1 ;    C39-   O33-   C38-   O35
   554   567   570   571   9   0.00   0.00000   0 ;    C39-   C42-   O34-   H71
   555   552   554   561   9   0.00   0.65084   3 ;    C40-   C37-   C39-   H66
   555   552   554   566   9   0.00   0.65084   3 ;    C40-   C37-   C39-   O33
   555   552   554   567   9   0.00   0.46024   1 ;    C40-   C37-   C39-   C42
   555   552   554   567   9   0.00   0.54392   3 ;    C40-   C37-   C39-   C42
   555   552   554   567   9   180.00   1.21336   2 ;    C40-   C37-   C39-   C42
   555   556   553   557   9   0.00   0.65084   3 ;    C40-   C41-   C38-   H62
   555   556   553   566   9   0.00   0.65084   3 ;    C40-   C41-   C38-   O33
   555   556   553   572   9   0.00   0.65084   3 ;    C40-   C41-   C38-   O35
   555   556   564   565   9   0.00   0.00000   0 ;    C40-   C41-   O32-   H68
   556   553   572   573   9   0.00   0.00000   0 ;    C41-   C38-   O35-   C43
   556   553   572   573   9   0.00   0.66944   2 ;    C41-   C38-   O35-   C43
   556   553   572   573   9   0.00   1.00416   3 ;    C41-   C38-   O35-   C43
   556   555   552   558   9   0.00   0.65084   3 ;    C41-   C40-   C37-   H63
   556   555   562   563   9   0.00   0.00000   0 ;    C41-   C40-   O31-   H67
   557   553   556   560   9   0.00   0.65084   3 ;    H62-   C38-   C41-   H65
   557   553   556   564   9   0.00   0.65084   3 ;    H62-   C38-   C41-   O32
   557   553   572   573   9   0.00   1.60387   3 ;    H62-   C38-   O35-   C43
   558   552   554   561   9   0.00   0.65084   3 ;    H63-   C37-   C39-   H66
   558   552   554   566   9   0.00   0.00000   0 ;    H63-   C37-   C39-   O33
   558   552   554   566   9   0.00   1.04600   1 ;    H63-   C37-   C39-   O33
   558   552   554   567   9   0.00   0.65084   3 ;    H63-   C37-   C39-   C42
   558   552   555   559   9   0.00   0.65084   3 ;    H63-   C37-   C40-   H64
   558   552   555   562   9   0.00   0.00000   0 ;    H63-   C37-   C40-   O31
   558   552   555   562   9   0.00   1.04600   1 ;    H63-   C37-   C40-   O31
   559   555   556   560   9   0.00   0.65084   3 ;    H64-   C40-   C41-   H65
   559   555   556   564   9   0.00   0.00000   0 ;    H64-   C40-   C41-   O32
   559   555   556   564   9   0.00   1.04600   1 ;    H64-   C40-   C41-   O32
   559   555   562   563   9   0.00   0.47279   3 ;    H64-   C40-   O31-   H67
   560   556   553   566   9   0.00   0.00000   0 ;    H65-   C41-   C38-   O33
   560   556   553   566   9   0.00   1.04600   1 ;    H65-   C41-   C38-   O33
   560   556   553   572   9   0.00   0.00000   0 ;    H65-   C41-   C38-   O35
   560   556   553   572   9   0.00   1.04600   1 ;    H65-   C41-   C38-   O35
   560   556   555   562   9   0.00   0.00000   0 ;    H65-   C41-   C40-   O31
   560   556   555   562   9   0.00   1.04600   1 ;    H65-   C41-   C40-   O31
   560   556   564   565   9   0.00   0.47279   3 ;    H65-   C41-   O32-   H68
   561   554   567   568   9   0.00   0.65084   3 ;    H66-   C39-   C42-   H69
   561   554   567   569   9   0.00   0.65084   3 ;    H66-   C39-   C42-   H70
   561   554   567   570   9   0.00   0.00000   0 ;    H66-   C39-   C42-   O34
   561   554   567   570   9   0.00   1.04600   1 ;    H66-   C39-   C42-   O34
   562   555   556   564   9   0.00   3.76560   3 ;    O31-   C40-   C41-   O32
   562   555   556   564   9   0.00   4.72792   2 ;    O31-   C40-   C41-   O32
   564   556   553   566   9   0.00   0.00000   0 ;    O32-   C41-   C38-   O33
   564   556   553   566   9   0.00   4.22584   3 ;    O32-   C41-   C38-   O33
   564   556   553   566   9   180.00   0.08368   1 ;    O32-   C41-   C38-   O33
   564   556   553   572   9   0.00   0.00000   0 ;    O32-   C41-   C38-   O35
   564   556   553   572   9   0.00   4.22584   3 ;    O32-   C41-   C38-   O35
   564   556   553   572   9   180.00   0.08368   1 ;    O32-   C41-   C38-   O35
   566   553   572   573   9   0.00   5.18816   2 ;    O33-   C38-   O35-   C43
   566   553   572   573   9   180.00   0.00000   3 ;    O33-   C38-   O35-   C43
   566   553   572   573   9   180.00   4.05848   1 ;    O33-   C38-   O35-   C43
   566   554   567   568   9   0.00   0.00000   0 ;    O33-   C39-   C42-   H69
   566   554   567   568   9   0.00   1.04600   1 ;    O33-   C39-   C42-   H69
   566   554   567   569   9   0.00   0.00000   0 ;    O33-   C39-   C42-   H70
   566   554   567   569   9   0.00   1.04600   1 ;    O33-   C39-   C42-   H70
   566   554   567   570   9   0.00   0.00000   0 ;    O33-   C39-   C42-   O34
   566   554   567   570   9   0.00   4.22584   3 ;    O33-   C39-   C42-   O34
   566   554   567   570   9   180.00   0.08368   1 ;    O33-   C39-   C42-   O34
   568   567   570   571   9   0.00   0.47279   3 ;    H69-   C42-   O34-   H71
   569   567   570   571   9   0.00   0.47279   3 ;    H70-   C42-   O34-   H71
   572   573   575   574   9   0.00   0.65084   3 ;    O35-   C43-   C45-   C44
   572   573   575   578   9   0.00   0.00000   0 ;    O35-   C43-   C45-   H72
   572   573   575   578   9   0.00   1.04600   1 ;    O35-   C43-   C45-   H72
   572   573   575   591   9   0.00   0.00000   0 ;    O35-   C43-   C45-   O39
   572   573   575   591   9   0.00   4.22584   3 ;    O35-   C43-   C45-   O39
   572   573   575   591   9   180.00   0.08368   1 ;    O35-   C43-   C45-   O39
   572   573   576   580   9   0.00   0.00000   0 ;    O35-   C43-   C46-   H74
   572   573   576   580   9   0.00   1.04600   1 ;    O35-   C43-   C46-   H74
   572   573   576   583   9   0.00   0.00000   0 ;    O35-   C43-   C46-   O36
   572   573   576   583   9   180.00   0.00000   2 ;    O35-   C43-   C46-   O36
   572   573   576   583   9   180.00   0.71128   1 ;    O35-   C43-   C46-   O36
   572   573   576   584   9   0.00   0.65084   3 ;    O35-   C43-   C46-   C48
   573   575   574   577   9   0.00   0.46024   1 ;    C43-   C45-   C44-   C47
   573   575   574   577   9   0.00   0.54392   3 ;    C43-   C45-   C44-   C47
   573   575   574   577   9   180.00   1.21336   2 ;    C43-   C45-   C44-   C47
   573   575   574   579   9   0.00   0.65084   3 ;    C43-   C45-   C44-   H73
   573   575   574   589   9   0.00   0.87864   3 ;    C43-   C45-   C44-   O38
   573   575   591   592   9   0.00   0.00000   0 ;    C43-   C45-   O39-   H81
   573   576   583   577   9   0.00   0.00000   0 ;    C43-   C46-   O36-   C47
   573   576   583   577   9   0.00   0.66944   2 ;    C43-   C46-   O36-   C47
   573   576   583   577   9   0.00   1.00416   3 ;    C43-   C46-   O36-   C47
   573   576   584   585   9   0.00   0.65084   3 ;    C43-   C46-   C48-   H77
   573   576   584   586   9   0.00   0.65084   3 ;    C43-   C46-   C48-   H78
   573   576   584   587   9   0.00   0.87864   3 ;    C43-   C46-   C48-   O37
   574   575   573   576   9   0.00   0.46024   1 ;    C44-   C45-   C43-   C46
   574   575   573   576   9   0.00   0.54392   3 ;    C44-   C45-   C43-   C46
   574   575   573   576   9   180.00   1.21336   2 ;    C44-   C45-   C43-   C46
   574   575   573   582   9   0.00   0.65084   3 ;    C44-   C45-   C43-   H76
   574   575   591   592   9   0.00   0.00000   0 ;    C44-   C45-   O39-   H81
   574   577   583   576   9   0.00   0.00000   0 ;    C44-   C47-   O36-   C46
   574   577   583   576   9   0.00   0.66944   2 ;    C44-   C47-   O36-   C46
   574   577   583   576   9   0.00   1.00416   3 ;    C44-   C47-   O36-   C46
   574   577   593   594   9   0.00   0.00000   0 ;    C44-   C47-   O40-   C49
   574   577   593   594   9   0.00   0.66944   2 ;    C44-   C47-   O40-   C49
   574   577   593   594   9   0.00   1.00416   3 ;    C44-   C47-   O40-   C49
   575   573   576   580   9   0.00   0.65084   3 ;    C45-   C43-   C46-   H74
   575   573   576   583   9   0.00   0.65084   3 ;    C45-   C43-   C46-   O36
   575   573   576   584   9   0.00   0.46024   1 ;    C45-   C43-   C46-   C48
   575   573   576   584   9   0.00   0.54392   3 ;    C45-   C43-   C46-   C48
   575   573   576   584   9   180.00   1.21336   2 ;    C45-   C43-   C46-   C48
   575   574   577   581   9   0.00   0.65084   3 ;    C45-   C44-   C47-   H75
   575   574   577   583   9   0.00   0.65084   3 ;    C45-   C44-   C47-   O36
   575   574   577   593   9   0.00   0.65084   3 ;    C45-   C44-   C47-   O40
   575   574   589   590   9   0.00   0.00000   0 ;    C45-   C44-   O38-   H80
   576   573   575   578   9   0.00   0.65084   3 ;    C46-   C43-   C45-   H72
   576   573   575   591   9   0.00   0.87864   3 ;    C46-   C43-   C45-   O39
   576   583   577   581   9   0.00   1.60387   3 ;    C46-   O36-   C47-   H75
   576   583   577   593   9   0.00   5.18816   2 ;    C46-   O36-   C47-   O40
   576   583   577   593   9   180.00   0.00000   3 ;    C46-   O36-   C47-   O40
   576   583   577   593   9   180.00   4.05848   1 ;    C46-   O36-   C47-   O40
   576   584   587   588   9   0.00   0.00000   0 ;    C46-   C48-   O37-   H79
   577   574   575   578   9   0.00   0.65084   3 ;    C47-   C44-   C45-   H72
   577   574   575   591   9   0.00   0.87864   3 ;    C47-   C44-   C45-   O39
   577   574   589   590   9   0.00   0.00000   0 ;    C47-   C44-   O38-   H80
   577   583   576   580   9   0.00   1.41001   3 ;    C47-   O36-   C46-   H74
   577   583   576   584   9   0.00   0.00000   0 ;    C47-   O36-   C46-   C48
   577   583   576   584   9   0.00   0.66944   2 ;    C47-   O36-   C46-   C48
   577   583   576   584   9   0.00   1.00416   3 ;    C47-   O36-   C46-   C48
   577   593   594   596   9   0.00   0.00000   0 ;    C47-   O40-   C49-   C51
   577   593   594   596   9   0.00   0.66944   2 ;    C47-   O40-   C49-   C51
   577   593   594   596   9   0.00   1.00416   3 ;    C47-   O40-   C49-   C51
   577   593   594   597   9   0.00   0.00000   0 ;    C47-   O40-   C49-   C52
   577   593   594   597   9   0.00   0.66944   2 ;    C47-   O40-   C49-   C52
   577   593   594   597   9   0.00   1.00416   3 ;    C47-   O40-   C49-   C52
   577   593   594   600   9   0.00   1.41001   3 ;    C47-   O40-   C49-   H83
   578   575   573   582   9   0.00   0.65084   3 ;    H72-   C45-   C43-   H76
   578   575   574   579   9   0.00   0.65084   3 ;    H72-   C45-   C44-   H73
   578   575   574   589   9   0.00   0.00000   0 ;    H72-   C45-   C44-   O38
   578   575   574   589   9   0.00   1.04600   1 ;    H72-   C45-   C44-   O38
   578   575   591   592   9   0.00   0.47279   3 ;    H72-   C45-   O39-   H81
   579   574   575   591   9   0.00   0.00000   0 ;    H73-   C44-   C45-   O39
   579   574   575   591   9   0.00   1.04600   1 ;    H73-   C44-   C45-   O39
   579   574   577   581   9   0.00   0.65084   3 ;    H73-   C44-   C47-   H75
   579   574   577   583   9   0.00   0.00000   0 ;    H73-   C44-   C47-   O36
   579   574   577   583   9   0.00   1.04600   1 ;    H73-   C44-   C47-   O36
   579   574   577   593   9   0.00   0.00000   0 ;    H73-   C44-   C47-   O40
   579   574   577   593   9   0.00   1.04600   1 ;    H73-   C44-   C47-   O40
   579   574   589   590   9   0.00   0.47279   3 ;    H73-   C44-   O38-   H80
   580   576   573   582   9   0.00   0.65084   3 ;    H74-   C46-   C43-   H76
   580   576   584   585   9   0.00   0.65084   3 ;    H74-   C46-   C48-   H77
   580   576   584   586   9   0.00   0.65084   3 ;    H74-   C46-   C48-   H78
   580   576   584   587   9   0.00   0.00000   0 ;    H74-   C46-   C48-   O37
   580   576   584   587   9   0.00   1.04600   1 ;    H74-   C46-   C48-   O37
   581   577   574   589   9   0.00   0.65084   3 ;    H75-   C47-   C44-   O38
   581   577   593   594   9   0.00   1.60387   3 ;    H75-   C47-   O40-   C49
   582   573   575   591   9   0.00   0.00000   0 ;    H76-   C43-   C45-   O39
   582   573   575   591   9   0.00   1.04600   1 ;    H76-   C43-   C45-   O39
   582   573   576   583   9   0.00   0.00000   0 ;    H76-   C43-   C46-   O36
   582   573   576   583   9   0.00   1.04600   1 ;    H76-   C43-   C46-   O36
   582   573   576   584   9   0.00   0.65084   3 ;    H76-   C43-   C46-   C48
   583   576   584   585   9   0.00   0.00000   0 ;    O36-   C46-   C48-   H77
   583   576   584   585   9   0.00   1.04600   1 ;    O36-   C46-   C48-   H77
   583   576   584   586   9   0.00   0.00000   0 ;    O36-   C46-   C48-   H78
   583   576   584   586   9   0.00   1.04600   1 ;    O36-   C46-   C48-   H78
   583   576   584   587   9   0.00   0.00000   0 ;    O36-   C46-   C48-   O37
   583   576   584   587   9   0.00   4.22584   3 ;    O36-   C46-   C48-   O37
   583   576   584   587   9   180.00   0.08368   1 ;    O36-   C46-   C48-   O37
   583   577   574   589   9   0.00   0.00000   0 ;    O36-   C47-   C44-   O38
   583   577   574   589   9   0.00   4.22584   3 ;    O36-   C47-   C44-   O38
   583   577   574   589   9   180.00   0.08368   1 ;    O36-   C47-   C44-   O38
   583   577   593   594   9   0.00   5.18816   2 ;    O36-   C47-   O40-   C49
   583   577   593   594   9   180.00   0.00000   3 ;    O36-   C47-   O40-   C49
   583   577   593   594   9   180.00   4.05848   1 ;    O36-   C47-   O40-   C49
   585   584   587   588   9   0.00   0.47279   3 ;    H77-   C48-   O37-   H79
   586   584   587   588   9   0.00   0.47279   3 ;    H78-   C48-   O37-   H79
   589   574   575   591   9   0.00   3.76560   3 ;    O38-   C44-   C45-   O39
   589   574   575   591   9   0.00   4.72792   2 ;    O38-   C44-   C45-   O39
   589   574   577   593   9   0.00   0.00000   0 ;    O38-   C44-   C47-   O40
   589   574   577   593   9   0.00   4.22584   3 ;    O38-   C44-   C47-   O40
   589   574   577   593   9   180.00   0.08368   1 ;    O38-   C44-   C47-   O40
   593   594   596   603   9   0.00   0.00000   0 ;    O40-   C49-   C51-   H86
   593   594   596   603   9   0.00   1.04600   1 ;    O40-   C49-   C51-   H86
   593   594   596   608   9   0.00   0.00000   0 ;    O40-   C49-   C51-   O43
   593   594   596   608   9   180.00   0.00000   2 ;    O40-   C49-   C51-   O43
   593   594   596   608   9   180.00   0.71128   1 ;    O40-   C49-   C51-   O43
   593   594   596   609   9   0.00   0.65084   3 ;    O40-   C49-   C51-   C54
   593   594   597   598   9   0.00   0.65084   3 ;    O40-   C49-   C52-   C53
   593   594   597   601   9   0.00   0.00000   0 ;    O40-   C49-   C52-   H84
   593   594   597   601   9   0.00   1.04600   1 ;    O40-   C49-   C52-   H84
   593   594   597   604   9   0.00   0.00000   0 ;    O40-   C49-   C52-   O41
   593   594   597   604   9   0.00   4.22584   3 ;    O40-   C49-   C52-   O41
   593   594   597   604   9   180.00   0.08368   1 ;    O40-   C49-   C52-   O41
   594   596   608   595   9   0.00   0.00000   0 ;    C49-   C51-   O43-   C50
   594   596   608   595   9   0.00   0.66944   2 ;    C49-   C51-   O43-   C50
   594   596   608   595   9   0.00   1.00416   3 ;    C49-   C51-   O43-   C50
   594   596   609   610   9   0.00   0.65084   3 ;    C49-   C51-   C54-   H89
   594   596   609   611   9   0.00   0.65084   3 ;    C49-   C51-   C54-   H90
   594   596   609   612   9   0.00   0.87864   3 ;    C49-   C51-   C54-   O44
   594   597   598   595   9   0.00   0.46024   1 ;    C49-   C52-   C53-   C50
   594   597   598   595   9   0.00   0.54392   3 ;    C49-   C52-   C53-   C50
   594   597   598   595   9   180.00   1.21336   2 ;    C49-   C52-   C53-   C50
   594   597   598   602   9   0.00   0.65084   3 ;    C49-   C52-   C53-   H85
   594   597   598   606   9   0.00   0.87864   3 ;    C49-   C52-   C53-   O42
   594   597   604   605   9   0.00   0.00000   0 ;    C49-   C52-   O41-   H87
   595   598   597   601   9   0.00   0.65084   3 ;    C50-   C53-   C52-   H84
   595   598   597   604   9   0.00   0.87864   3 ;    C50-   C53-   C52-   O41
   595   598   606   607   9   0.00   0.00000   0 ;    C50-   C53-   O42-   H88
   595   608   596   603   9   0.00   1.41001   3 ;    C50-   O43-   C51-   H86
   595   608   596   609   9   0.00   0.00000   0 ;    C50-   O43-   C51-   C54
   595   608   596   609   9   0.00   0.66944   2 ;    C50-   O43-   C51-   C54
   595   608   596   609   9   0.00   1.00416   3 ;    C50-   O43-   C51-   C54
   595   614   615   617   9   0.00   0.00000   0 ;    C50-   O45-   C55-   C57
   595   614   615   617   9   0.00   0.66944   2 ;    C50-   O45-   C55-   C57
   595   614   615   617   9   0.00   1.00416   3 ;    C50-   O45-   C55-   C57
   595   614   615   618   9   0.00   0.00000   0 ;    C50-   O45-   C55-   C58
   595   614   615   618   9   0.00   0.66944   2 ;    C50-   O45-   C55-   C58
   595   614   615   618   9   0.00   1.00416   3 ;    C50-   O45-   C55-   C58
   595   614   615   624   9   0.00   1.41001   3 ;    C50-   O45-   C55-   H96
   596   594   597   598   9   0.00   0.46024   1 ;    C51-   C49-   C52-   C53
   596   594   597   598   9   0.00   0.54392   3 ;    C51-   C49-   C52-   C53
   596   594   597   598   9   180.00   1.21336   2 ;    C51-   C49-   C52-   C53
   596   594   597   601   9   0.00   0.65084   3 ;    C51-   C49-   C52-   H84
   596   594   597   604   9   0.00   0.87864   3 ;    C51-   C49-   C52-   O41
   596   608   595   598   9   0.00   0.00000   0 ;    C51-   O43-   C50-   C53
   596   608   595   598   9   0.00   0.66944   2 ;    C51-   O43-   C50-   C53
   596   608   595   598   9   0.00   1.00416   3 ;    C51-   O43-   C50-   C53
   596   608   595   599   9   0.00   1.60387   3 ;    C51-   O43-   C50-   H82
   596   608   595   614   9   0.00   5.18816   2 ;    C51-   O43-   C50-   O45
   596   608   595   614   9   180.00   0.00000   3 ;    C51-   O43-   C50-   O45
   596   608   595   614   9   180.00   4.05848   1 ;    C51-   O43-   C50-   O45
   596   609   612   613   9   0.00   0.00000   0 ;    C51-   C54-   O44-   H91
   597   594   596   603   9   0.00   0.65084   3 ;    C52-   C49-   C51-   H86
   597   594   596   608   9   0.00   0.65084   3 ;    C52-   C49-   C51-   O43
   597   594   596   609   9   0.00   0.46024   1 ;    C52-   C49-   C51-   C54
   597   594   596   609   9   0.00   0.54392   3 ;    C52-   C49-   C51-   C54
   597   594   596   609   9   180.00   1.21336   2 ;    C52-   C49-   C51-   C54
   597   598   595   599   9   0.00   0.65084   3 ;    C52-   C53-   C50-   H82
   597   598   595   608   9   0.00   0.65084   3 ;    C52-   C53-   C50-   O43
   597   598   595   614   9   0.00   0.65084   3 ;    C52-   C53-   C50-   O45
   597   598   606   607   9   0.00   0.00000   0 ;    C52-   C53-   O42-   H88
   598   595   614   615   9   0.00   0.00000   0 ;    C53-   C50-   O45-   C55
   598   595   614   615   9   0.00   0.66944   2 ;    C53-   C50-   O45-   C55
   598   595   614   615   9   0.00   1.00416   3 ;    C53-   C50-   O45-   C55
   598   597   594   600   9   0.00   0.65084   3 ;    C53-   C52-   C49-   H83
   598   597   604   605   9   0.00   0.00000   0 ;    C53-   C52-   O41-   H87
   599   595   598   602   9   0.00   0.65084   3 ;    H82-   C50-   C53-   H85
   599   595   598   606   9   0.00   0.65084   3 ;    H82-   C50-   C53-   O42
   599   595   614   615   9   0.00   1.60387   3 ;    H82-   C50-   O45-   C55
   600   594   596   603   9   0.00   0.65084   3 ;    H83-   C49-   C51-   H86
   600   594   596   608   9   0.00   0.00000   0 ;    H83-   C49-   C51-   O43
   600   594   596   608   9   0.00   1.04600   1 ;    H83-   C49-   C51-   O43
   600   594   596   609   9   0.00   0.65084   3 ;    H83-   C49-   C51-   C54
   600   594   597   601   9   0.00   0.65084   3 ;    H83-   C49-   C52-   H84
   600   594   597   604   9   0.00   0.00000   0 ;    H83-   C49-   C52-   O41
   600   594   597   604   9   0.00   1.04600   1 ;    H83-   C49-   C52-   O41
   601   597   598   602   9   0.00   0.65084   3 ;    H84-   C52-   C53-   H85
   601   597   598   606   9   0.00   0.00000   0 ;    H84-   C52-   C53-   O42
   601   597   598   606   9   0.00   1.04600   1 ;    H84-   C52-   C53-   O42
   601   597   604   605   9   0.00   0.47279   3 ;    H84-   C52-   O41-   H87
   602   598   595   608   9   0.00   0.00000   0 ;    H85-   C53-   C50-   O43
   602   598   595   608   9   0.00   1.04600   1 ;    H85-   C53-   C50-   O43
   602   598   595   614   9   0.00   0.00000   0 ;    H85-   C53-   C50-   O45
   602   598   595   614   9   0.00   1.04600   1 ;    H85-   C53-   C50-   O45
   602   598   597   604   9   0.00   0.00000   0 ;    H85-   C53-   C52-   O41
   602   598   597   604   9   0.00   1.04600   1 ;    H85-   C53-   C52-   O41
   602   598   606   607   9   0.00   0.47279   3 ;    H85-   C53-   O42-   H88
   603   596   609   610   9   0.00   0.65084   3 ;    H86-   C51-   C54-   H89
   603   596   609   611   9   0.00   0.65084   3 ;    H86-   C51-   C54-   H90
   603   596   609   612   9   0.00   0.00000   0 ;    H86-   C51-   C54-   O44
   603   596   609   612   9   0.00   1.04600   1 ;    H86-   C51-   C54-   O44
   604   597   598   606   9   0.00   3.76560   3 ;    O41-   C52-   C53-   O42
   604   597   598   606   9   0.00   4.72792   2 ;    O41-   C52-   C53-   O42
   606   598   595   608   9   0.00   0.00000   0 ;    O42-   C53-   C50-   O43
   606   598   595   608   9   0.00   4.22584   3 ;    O42-   C53-   C50-   O43
   606   598   595   608   9   180.00   0.08368   1 ;    O42-   C53-   C50-   O43
   606   598   595   614   9   0.00   0.00000   0 ;    O42-   C53-   C50-   O45
   606   598   595   614   9   0.00   4.22584   3 ;    O42-   C53-   C50-   O45
   606   598   595   614   9   180.00   0.08368   1 ;    O42-   C53-   C50-   O45
   608   595   614   615   9   0.00   5.18816   2 ;    O43-   C50-   O45-   C55
   608   595   614   615   9   180.00   0.00000   3 ;    O43-   C50-   O45-   C55
   608   595   614   615   9   180.00   4.05848   1 ;    O43-   C50-   O45-   C55
   608   596   609   610   9   0.00   0.00000   0 ;    O43-   C51-   C54-   H89
   608   596   609   610   9   0.00   1.04600   1 ;    O43-   C51-   C54-   H89
   608   596   609   611   9   0.00   0.00000   0 ;    O43-   C51-   C54-   H90
   608   596   609   611   9   0.00   1.04600   1 ;    O43-   C51-   C54-   H90
   608   596   609   612   9   0.00   0.00000   0 ;    O43-   C51-   C54-   O44
   608   596   609   612   9   0.00   4.22584   3 ;    O43-   C51-   C54-   O44
   608   596   609   612   9   180.00   0.08368   1 ;    O43-   C51-   C54-   O44
   610   609   612   613   9   0.00   0.47279   3 ;    H89-   C54-   O44-   H91
   611   609   612   613   9   0.00   0.47279   3 ;    H90-   C54-   O44-   H91
   614   615   617   616   9   0.00   0.65084   3 ;    O45-   C55-   C57-   C56
   614   615   617   620   9   0.00   0.00000   0 ;    O45-   C55-   C57-   H92
   614   615   617   620   9   0.00   1.04600   1 ;    O45-   C55-   C57-   H92
   614   615   617   633   9   0.00   0.00000   0 ;    O45-   C55-   C57-   O49
   614   615   617   633   9   0.00   4.22584   3 ;    O45-   C55-   C57-   O49
   614   615   617   633   9   180.00   0.08368   1 ;    O45-   C55-   C57-   O49
   614   615   618   622   9   0.00   0.00000   0 ;    O45-   C55-   C58-   H94
   614   615   618   622   9   0.00   1.04600   1 ;    O45-   C55-   C58-   H94
   614   615   618   625   9   0.00   0.00000   0 ;    O45-   C55-   C58-   O46
   614   615   618   625   9   180.00   0.00000   2 ;    O45-   C55-   C58-   O46
   614   615   618   625   9   180.00   0.71128   1 ;    O45-   C55-   C58-   O46
   614   615   618   626   9   0.00   0.65084   3 ;    O45-   C55-   C58-   C60
   615   617   616   619   9   0.00   0.46024   1 ;    C55-   C57-   C56-   C59
   615   617   616   619   9   0.00   0.54392   3 ;    C55-   C57-   C56-   C59
   615   617   616   619   9   180.00   1.21336   2 ;    C55-   C57-   C56-   C59
   615   617   616   621   9   0.00   0.65084   3 ;    C55-   C57-   C56-   H93
   615   617   616   631   9   0.00   0.87864   3 ;    C55-   C57-   C56-   O48
   615   617   633   634   9   0.00   0.00000   0 ;    C55-   C57-   O49-  H101
   615   618   625   619   9   0.00   0.00000   0 ;    C55-   C58-   O46-   C59
   615   618   625   619   9   0.00   0.66944   2 ;    C55-   C58-   O46-   C59
   615   618   625   619   9   0.00   1.00416   3 ;    C55-   C58-   O46-   C59
   615   618   626   627   9   0.00   0.65084   3 ;    C55-   C58-   C60-   H97
   615   618   626   628   9   0.00   0.65084   3 ;    C55-   C58-   C60-   H98
   615   618   626   629   9   0.00   0.87864   3 ;    C55-   C58-   C60-   O47
   616   617   615   618   9   0.00   0.46024   1 ;    C56-   C57-   C55-   C58
   616   617   615   618   9   0.00   0.54392   3 ;    C56-   C57-   C55-   C58
   616   617   615   618   9   180.00   1.21336   2 ;    C56-   C57-   C55-   C58
   616   617   615   624   9   0.00   0.65084   3 ;    C56-   C57-   C55-   H96
   616   617   633   634   9   0.00   0.00000   0 ;    C56-   C57-   O49-  H101
   616   619   625   618   9   0.00   0.00000   0 ;    C56-   C59-   O46-   C58
   616   619   625   618   9   0.00   0.66944   2 ;    C56-   C59-   O46-   C58
   616   619   625   618   9   0.00   1.00416   3 ;    C56-   C59-   O46-   C58
   616   619   635   636   9   0.00   0.00000   0 ;    C56-   C59-   O50-  H102
   617   615   618   622   9   0.00   0.65084   3 ;    C57-   C55-   C58-   H94
   617   615   618   625   9   0.00   0.65084   3 ;    C57-   C55-   C58-   O46
   617   615   618   626   9   0.00   0.46024   1 ;    C57-   C55-   C58-   C60
   617   615   618   626   9   0.00   0.54392   3 ;    C57-   C55-   C58-   C60
   617   615   618   626   9   180.00   1.21336   2 ;    C57-   C55-   C58-   C60
   617   616   619   623   9   0.00   0.65084   3 ;    C57-   C56-   C59-   H95
   617   616   619   625   9   0.00   0.65084   3 ;    C57-   C56-   C59-   O46
   617   616   619   635   9   0.00   0.87864   3 ;    C57-   C56-   C59-   O50
   617   616   631   632   9   0.00   0.00000   0 ;    C57-   C56-   O48-  H100
   618   615   617   620   9   0.00   0.65084   3 ;    C58-   C55-   C57-   H92
   618   615   617   633   9   0.00   0.87864   3 ;    C58-   C55-   C57-   O49
   618   625   619   623   9   0.00   1.60387   3 ;    C58-   O46-   C59-   H95
   618   625   619   635   9   0.00   1.60387   3 ;    C58-   O46-   C59-   O50
   618   626   629   630   9   0.00   0.00000   0 ;    C58-   C60-   O47-   H99
   619   616   617   620   9   0.00   0.65084   3 ;    C59-   C56-   C57-   H92
   619   616   617   633   9   0.00   0.87864   3 ;    C59-   C56-   C57-   O49
   619   616   631   632   9   0.00   0.00000   0 ;    C59-   C56-   O48-  H100
   619   625   618   622   9   0.00   1.41001   3 ;    C59-   O46-   C58-   H94
   619   625   618   626   9   0.00   0.00000   0 ;    C59-   O46-   C58-   C60
   619   625   618   626   9   0.00   0.66944   2 ;    C59-   O46-   C58-   C60
   619   625   618   626   9   0.00   1.00416   3 ;    C59-   O46-   C58-   C60
   620   617   615   624   9   0.00   0.65084   3 ;    H92-   C57-   C55-   H96
   620   617   616   621   9   0.00   0.65084   3 ;    H92-   C57-   C56-   H93
   620   617   616   631   9   0.00   0.00000   0 ;    H92-   C57-   C56-   O48
   620   617   616   631   9   0.00   1.04600   1 ;    H92-   C57-   C56-   O48
   620   617   633   634   9   0.00   0.47279   3 ;    H92-   C57-   O49-  H101
   621   616   617   633   9   0.00   0.00000   0 ;    H93-   C56-   C57-   O49
   621   616   617   633   9   0.00   1.04600   1 ;    H93-   C56-   C57-   O49
   621   616   619   623   9   0.00   0.65084   3 ;    H93-   C56-   C59-   H95
   621   616   619   625   9   0.00   0.00000   0 ;    H93-   C56-   C59-   O46
   621   616   619   625   9   0.00   1.04600   1 ;    H93-   C56-   C59-   O46
   621   616   619   635   9   0.00   0.00000   0 ;    H93-   C56-   C59-   O50
   621   616   619   635   9   0.00   1.04600   1 ;    H93-   C56-   C59-   O50
   621   616   631   632   9   0.00   0.47279   3 ;    H93-   C56-   O48-  H100
   622   618   615   624   9   0.00   0.65084   3 ;    H94-   C58-   C55-   H96
   622   618   626   627   9   0.00   0.65084   3 ;    H94-   C58-   C60-   H97
   622   618   626   628   9   0.00   0.65084   3 ;    H94-   C58-   C60-   H98
   622   618   626   629   9   0.00   0.00000   0 ;    H94-   C58-   C60-   O47
   622   618   626   629   9   0.00   1.04600   1 ;    H94-   C58-   C60-   O47
   623   619   616   631   9   0.00   0.65084   3 ;    H95-   C59-   C56-   O48
   623   619   635   636   9   0.00   0.69733   3 ;    H95-   C59-   O50-  H102
   624   615   617   633   9   0.00   0.00000   0 ;    H96-   C55-   C57-   O49
   624   615   617   633   9   0.00   1.04600   1 ;    H96-   C55-   C57-   O49
   624   615   618   625   9   0.00   0.00000   0 ;    H96-   C55-   C58-   O46
   624   615   618   625   9   0.00   1.04600   1 ;    H96-   C55-   C58-   O46
   624   615   618   626   9   0.00   0.65084   3 ;    H96-   C55-   C58-   C60
   625   618   626   627   9   0.00   0.00000   0 ;    O46-   C58-   C60-   H97
   625   618   626   627   9   0.00   1.04600   1 ;    O46-   C58-   C60-   H97
   625   618   626   628   9   0.00   0.00000   0 ;    O46-   C58-   C60-   H98
   625   618   626   628   9   0.00   1.04600   1 ;    O46-   C58-   C60-   H98
   625   618   626   629   9   0.00   0.00000   0 ;    O46-   C58-   C60-   O47
   625   618   626   629   9   0.00   4.22584   3 ;    O46-   C58-   C60-   O47
   625   618   626   629   9   180.00   0.08368   1 ;    O46-   C58-   C60-   O47
   625   619   616   631   9   0.00   0.00000   0 ;    O46-   C59-   C56-   O48
   625   619   616   631   9   0.00   4.22584   3 ;    O46-   C59-   C56-   O48
   625   619   616   631   9   180.00   0.08368   1 ;    O46-   C59-   C56-   O48
   625   619   635   636   9   0.00   0.69733   3 ;    O46-   C59-   O50-  H102
   627   626   629   630   9   0.00   0.47279   3 ;    H97-   C60-   O47-   H99
   628   626   629   630   9   0.00   0.47279   3 ;    H98-   C60-   O47-   H99
   631   616   617   633   9   0.00   3.76560   3 ;    O48-   C56-   C57-   O49
   631   616   617   633   9   0.00   4.72792   2 ;    O48-   C56-   C57-   O49
   631   616   619   635   9   0.00   3.76560   3 ;    O48-   C56-   C59-   O50
   631   616   619   635   9   0.00   4.72792   2 ;    O48-   C56-   C59-   O50
   637   638   640   647   9   0.00   0.65084   3 ;     H1-    C1-    C3-    H6
   637   638   640   652   9   0.00   0.00000   0 ;     H1-    C1-    C3-    O3
   637   638   640   652   9   0.00   1.04600   1 ;     H1-    C1-    C3-    O3
   637   638   640   653   9   0.00   0.33472   3 ;     H1-    C1-    C3-    C6
   637   638   641   642   9   0.00   0.33472   3 ;     H1-    C1-    C4-    C5
   637   638   641   645   9   0.00   0.65084   3 ;     H1-    C1-    C4-    H4
   637   638   641   648   9   0.00   0.75312   3 ;     H1-    C1-    C4-    O1
   637   638   641   648   9   0.00   2.13384   1 ;     H1-    C1-    C4-    O1
   638   640   652   639   9   0.00   0.00000   0 ;     C1-    C3-    O3-    C2
   638   640   652   639   9   0.00   0.66944   2 ;     C1-    C3-    O3-    C2
   638   640   652   639   9   0.00   1.00416   3 ;     C1-    C3-    O3-    C2
   638   640   653   654   9   0.00   0.65084   3 ;     C1-    C3-    C6-    H9
   638   640   653   655   9   0.00   0.65084   3 ;     C1-    C3-    C6-   H10
   638   640   653   656   9   0.00   0.87864   3 ;     C1-    C3-    C6-    O4
   638   641   642   639   9   0.00   0.46024   1 ;     C1-    C4-    C5-    C2
   638   641   642   639   9   0.00   0.54392   3 ;     C1-    C4-    C5-    C2
   638   641   642   639   9   180.00   1.21336   2 ;     C1-    C4-    C5-    C2
   638   641   642   646   9   0.00   0.65084   3 ;     C1-    C4-    C5-    H5
   638   641   642   650   9   0.00   0.87864   3 ;     C1-    C4-    C5-    O2
   638   641   648   649   9   0.00   0.00000   0 ;     C1-    C4-    O1-    H7
   639   642   641   645   9   0.00   0.65084   3 ;     C2-    C5-    C4-    H4
   639   642   641   648   9   0.00   0.87864   3 ;     C2-    C5-    C4-    O1
   639   642   650   651   9   0.00   0.00000   0 ;     C2-    C5-    O2-    H8
   639   652   640   647   9   0.00   1.41001   3 ;     C2-    O3-    C3-    H6
   639   652   640   653   9   0.00   0.00000   0 ;     C2-    O3-    C3-    C6
   639   652   640   653   9   0.00   0.66944   2 ;     C2-    O3-    C3-    C6
   639   652   640   653   9   0.00   1.00416   3 ;     C2-    O3-    C3-    C6
   639   658   659   661   9   0.00   0.00000   0 ;     C2-    O5-    C7-    C9
   639   658   659   661   9   0.00   0.66944   2 ;     C2-    O5-    C7-    C9
   639   658   659   661   9   0.00   1.00416   3 ;     C2-    O5-    C7-    C9
   639   658   659   662   9   0.00   0.00000   0 ;     C2-    O5-    C7-   C10
   639   658   659   662   9   0.00   0.66944   2 ;     C2-    O5-    C7-   C10
   639   658   659   662   9   0.00   1.00416   3 ;     C2-    O5-    C7-   C10
   639   658   659   668   9   0.00   1.41001   3 ;     C2-    O5-    C7-   H16
   640   638   641   642   9   0.00   0.46024   1 ;     C3-    C1-    C4-    C5
   640   638   641   642   9   0.00   0.54392   3 ;     C3-    C1-    C4-    C5
   640   638   641   642   9   180.00   1.21336   2 ;     C3-    C1-    C4-    C5
   640   638   641   645   9   0.00   0.65084   3 ;     C3-    C1-    C4-    H4
   640   638   641   648   9   0.00   0.87864   3 ;     C3-    C1-    C4-    O1
   640   652   639   642   9   0.00   0.00000   0 ;     C3-    O3-    C2-    C5
   640   652   639   642   9   0.00   0.66944   2 ;     C3-    O3-    C2-    C5
   640   652   639   642   9   0.00   1.00416   3 ;     C3-    O3-    C2-    C5
   640   652   639   643   9   0.00   1.60387   3 ;     C3-    O3-    C2-    H2
   640   652   639   658   9   0.00   5.18816   2 ;     C3-    O3-    C2-    O5
   640   652   639   658   9   180.00   0.00000   3 ;     C3-    O3-    C2-    O5
   640   652   639   658   9   180.00   4.05848   1 ;     C3-    O3-    C2-    O5
   640   653   656   657   9   0.00   0.00000   0 ;     C3-    C6-    O4-   H11
   641   638   640   647   9   0.00   0.65084   3 ;     C4-    C1-    C3-    H6
   641   638   640   652   9   0.00   0.65084   3 ;     C4-    C1-    C3-    O3
   641   638   640   653   9   0.00   0.46024   1 ;     C4-    C1-    C3-    C6
   641   638   640   653   9   0.00   0.54392   3 ;     C4-    C1-    C3-    C6
   641   638   640   653   9   180.00   1.21336   2 ;     C4-    C1-    C3-    C6
   641   642   639   643   9   0.00   0.65084   3 ;     C4-    C5-    C2-    H2
   641   642   639   652   9   0.00   0.65084   3 ;     C4-    C5-    C2-    O3
   641   642   639   658   9   0.00   0.65084   3 ;     C4-    C5-    C2-    O5
   641   642   650   651   9   0.00   0.00000   0 ;     C4-    C5-    O2-    H8
   642   639   658   659   9   0.00   0.00000   0 ;     C5-    C2-    O5-    C7
   642   639   658   659   9   0.00   0.66944   2 ;     C5-    C2-    O5-    C7
   642   639   658   659   9   0.00   1.00416   3 ;     C5-    C2-    O5-    C7
   642   641   638   644   9   0.00   0.33472   3 ;     C5-    C4-    C1-    H3
   642   641   648   649   9   0.00   0.00000   0 ;     C5-    C4-    O1-    H7
   643   639   642   646   9   0.00   0.65084   3 ;     H2-    C2-    C5-    H5
   643   639   642   650   9   0.00   0.65084   3 ;     H2-    C2-    C5-    O2
   643   639   658   659   9   0.00   1.60387   3 ;     H2-    C2-    O5-    C7
   644   638   640   647   9   0.00   0.65084   3 ;     H3-    C1-    C3-    H6
   644   638   640   652   9   0.00   0.00000   0 ;     H3-    C1-    C3-    O3
   644   638   640   652   9   0.00   1.04600   1 ;     H3-    C1-    C3-    O3
   644   638   640   653   9   0.00   0.33472   3 ;     H3-    C1-    C3-    C6
   644   638   641   645   9   0.00   0.65084   3 ;     H3-    C1-    C4-    H4
   644   638   641   648   9   0.00   0.75312   3 ;     H3-    C1-    C4-    O1
   644   638   641   648   9   0.00   2.13384   1 ;     H3-    C1-    C4-    O1
   645   641   642   646   9   0.00   0.65084   3 ;     H4-    C4-    C5-    H5
   645   641   642   650   9   0.00   0.00000   0 ;     H4-    C4-    C5-    O2
   645   641   642   650   9   0.00   1.04600   1 ;     H4-    C4-    C5-    O2
   645   641   648   649   9   0.00   0.47279   3 ;     H4-    C4-    O1-    H7
   646   642   639   652   9   0.00   0.00000   0 ;     H5-    C5-    C2-    O3
   646   642   639   652   9   0.00   1.04600   1 ;     H5-    C5-    C2-    O3
   646   642   639   658   9   0.00   0.00000   0 ;     H5-    C5-    C2-    O5
   646   642   639   658   9   0.00   1.04600   1 ;     H5-    C5-    C2-    O5
   646   642   641   648   9   0.00   0.00000   0 ;     H5-    C5-    C4-    O1
   646   642   641   648   9   0.00   1.04600   1 ;     H5-    C5-    C4-    O1
   646   642   650   651   9   0.00   0.47279   3 ;     H5-    C5-    O2-    H8
   647   640   653   654   9   0.00   0.65084   3 ;     H6-    C3-    C6-    H9
   647   640   653   655   9   0.00   0.65084   3 ;     H6-    C3-    C6-   H10
   647   640   653   656   9   0.00   0.00000   0 ;     H6-    C3-    C6-    O4
   647   640   653   656   9   0.00   1.04600   1 ;     H6-    C3-    C6-    O4
   648   641   642   650   9   0.00   3.76560   3 ;     O1-    C4-    C5-    O2
   648   641   642   650   9   0.00   4.72792   2 ;     O1-    C4-    C5-    O2
   650   642   639   652   9   0.00   0.00000   0 ;     O2-    C5-    C2-    O3
   650   642   639   652   9   0.00   4.22584   3 ;     O2-    C5-    C2-    O3
   650   642   639   652   9   180.00   0.08368   1 ;     O2-    C5-    C2-    O3
   650   642   639   658   9   0.00   0.00000   0 ;     O2-    C5-    C2-    O5
   650   642   639   658   9   0.00   4.22584   3 ;     O2-    C5-    C2-    O5
   650   642   639   658   9   180.00   0.08368   1 ;     O2-    C5-    C2-    O5
   652   639   658   659   9   0.00   5.18816   2 ;     O3-    C2-    O5-    C7
   652   639   658   659   9   180.00   0.00000   3 ;     O3-    C2-    O5-    C7
   652   639   658   659   9   180.00   4.05848   1 ;     O3-    C2-    O5-    C7
   652   640   653   654   9   0.00   0.00000   0 ;     O3-    C3-    C6-    H9
   652   640   653   654   9   0.00   1.04600   1 ;     O3-    C3-    C6-    H9
   652   640   653   655   9   0.00   0.00000   0 ;     O3-    C3-    C6-   H10
   652   640   653   655   9   0.00   1.04600   1 ;     O3-    C3-    C6-   H10
   652   640   653   656   9   0.00   0.00000   0 ;     O3-    C3-    C6-    O4
   652   640   653   656   9   0.00   4.22584   3 ;     O3-    C3-    C6-    O4
   652   640   653   656   9   180.00   0.08368   1 ;     O3-    C3-    C6-    O4
   654   653   656   657   9   0.00   0.47279   3 ;     H9-    C6-    O4-   H11
   655   653   656   657   9   0.00   0.47279   3 ;    H10-    C6-    O4-   H11
   658   659   661   660   9   0.00   0.65084   3 ;     O5-    C7-    C9-    C8
   658   659   661   664   9   0.00   0.00000   0 ;     O5-    C7-    C9-   H12
   658   659   661   664   9   0.00   1.04600   1 ;     O5-    C7-    C9-   H12
   658   659   661   677   9   0.00   0.00000   0 ;     O5-    C7-    C9-    O9
   658   659   661   677   9   0.00   4.22584   3 ;     O5-    C7-    C9-    O9
   658   659   661   677   9   180.00   0.08368   1 ;     O5-    C7-    C9-    O9
   658   659   662   666   9   0.00   0.00000   0 ;     O5-    C7-   C10-   H14
   658   659   662   666   9   0.00   1.04600   1 ;     O5-    C7-   C10-   H14
   658   659   662   669   9   0.00   0.00000   0 ;     O5-    C7-   C10-    O6
   658   659   662   669   9   180.00   0.00000   2 ;     O5-    C7-   C10-    O6
   658   659   662   669   9   180.00   0.71128   1 ;     O5-    C7-   C10-    O6
   658   659   662   670   9   0.00   0.65084   3 ;     O5-    C7-   C10-   C12
   659   661   660   663   9   0.00   0.46024   1 ;     C7-    C9-    C8-   C11
   659   661   660   663   9   0.00   0.54392   3 ;     C7-    C9-    C8-   C11
   659   661   660   663   9   180.00   1.21336   2 ;     C7-    C9-    C8-   C11
   659   661   660   665   9   0.00   0.65084   3 ;     C7-    C9-    C8-   H13
   659   661   660   675   9   0.00   0.87864   3 ;     C7-    C9-    C8-    O8
   659   661   677   678   9   0.00   0.00000   0 ;     C7-    C9-    O9-   H21
   659   662   669   663   9   0.00   0.00000   0 ;     C7-   C10-    O6-   C11
   659   662   669   663   9   0.00   0.66944   2 ;     C7-   C10-    O6-   C11
   659   662   669   663   9   0.00   1.00416   3 ;     C7-   C10-    O6-   C11
   659   662   670   671   9   0.00   0.65084   3 ;     C7-   C10-   C12-   H17
   659   662   670   672   9   0.00   0.65084   3 ;     C7-   C10-   C12-   H18
   659   662   670   673   9   0.00   0.87864   3 ;     C7-   C10-   C12-    O7
   660   661   659   662   9   0.00   0.46024   1 ;     C8-    C9-    C7-   C10
   660   661   659   662   9   0.00   0.54392   3 ;     C8-    C9-    C7-   C10
   660   661   659   662   9   180.00   1.21336   2 ;     C8-    C9-    C7-   C10
   660   661   659   668   9   0.00   0.65084   3 ;     C8-    C9-    C7-   H16
   660   661   677   678   9   0.00   0.00000   0 ;     C8-    C9-    O9-   H21
   660   663   669   662   9   0.00   0.00000   0 ;     C8-   C11-    O6-   C10
   660   663   669   662   9   0.00   0.66944   2 ;     C8-   C11-    O6-   C10
   660   663   669   662   9   0.00   1.00416   3 ;     C8-   C11-    O6-   C10
   660   663   679   680   9   0.00   0.00000   0 ;     C8-   C11-   O10-   C13
   660   663   679   680   9   0.00   0.66944   2 ;     C8-   C11-   O10-   C13
   660   663   679   680   9   0.00   1.00416   3 ;     C8-   C11-   O10-   C13
   661   659   662   666   9   0.00   0.65084   3 ;     C9-    C7-   C10-   H14
   661   659   662   669   9   0.00   0.65084   3 ;     C9-    C7-   C10-    O6
   661   659   662   670   9   0.00   0.46024   1 ;     C9-    C7-   C10-   C12
   661   659   662   670   9   0.00   0.54392   3 ;     C9-    C7-   C10-   C12
   661   659   662   670   9   180.00   1.21336   2 ;     C9-    C7-   C10-   C12
   661   660   663   667   9   0.00   0.65084   3 ;     C9-    C8-   C11-   H15
   661   660   663   669   9   0.00   0.65084   3 ;     C9-    C8-   C11-    O6
   661   660   663   679   9   0.00   0.65084   3 ;     C9-    C8-   C11-   O10
   661   660   675   676   9   0.00   0.00000   0 ;     C9-    C8-    O8-   H20
   662   659   661   664   9   0.00   0.65084   3 ;    C10-    C7-    C9-   H12
   662   659   661   677   9   0.00   0.87864   3 ;    C10-    C7-    C9-    O9
   662   669   663   667   9   0.00   1.60387   3 ;    C10-    O6-   C11-   H15
   662   669   663   679   9   0.00   5.18816   2 ;    C10-    O6-   C11-   O10
   662   669   663   679   9   180.00   0.00000   3 ;    C10-    O6-   C11-   O10
   662   669   663   679   9   180.00   4.05848   1 ;    C10-    O6-   C11-   O10
   662   670   673   674   9   0.00   0.00000   0 ;    C10-   C12-    O7-   H19
   663   660   661   664   9   0.00   0.65084   3 ;    C11-    C8-    C9-   H12
   663   660   661   677   9   0.00   0.87864   3 ;    C11-    C8-    C9-    O9
   663   660   675   676   9   0.00   0.00000   0 ;    C11-    C8-    O8-   H20
   663   669   662   666   9   0.00   1.41001   3 ;    C11-    O6-   C10-   H14
   663   669   662   670   9   0.00   0.00000   0 ;    C11-    O6-   C10-   C12
   663   669   662   670   9   0.00   0.66944   2 ;    C11-    O6-   C10-   C12
   663   669   662   670   9   0.00   1.00416   3 ;    C11-    O6-   C10-   C12
   663   679   680   682   9   0.00   0.00000   0 ;    C11-   O10-   C13-   C15
   663   679   680   682   9   0.00   0.66944   2 ;    C11-   O10-   C13-   C15
   663   679   680   682   9   0.00   1.00416   3 ;    C11-   O10-   C13-   C15
   663   679   680   683   9   0.00   0.00000   0 ;    C11-   O10-   C13-   C16
   663   679   680   683   9   0.00   0.66944   2 ;    C11-   O10-   C13-   C16
   663   679   680   683   9   0.00   1.00416   3 ;    C11-   O10-   C13-   C16
   663   679   680   686   9   0.00   1.41001   3 ;    C11-   O10-   C13-   H23
   664   661   659   668   9   0.00   0.65084   3 ;    H12-    C9-    C7-   H16
   664   661   660   665   9   0.00   0.65084   3 ;    H12-    C9-    C8-   H13
   664   661   660   675   9   0.00   0.00000   0 ;    H12-    C9-    C8-    O8
   664   661   660   675   9   0.00   1.04600   1 ;    H12-    C9-    C8-    O8
   664   661   677   678   9   0.00   0.47279   3 ;    H12-    C9-    O9-   H21
   665   660   661   677   9   0.00   0.00000   0 ;    H13-    C8-    C9-    O9
   665   660   661   677   9   0.00   1.04600   1 ;    H13-    C8-    C9-    O9
   665   660   663   667   9   0.00   0.65084   3 ;    H13-    C8-   C11-   H15
   665   660   663   669   9   0.00   0.00000   0 ;    H13-    C8-   C11-    O6
   665   660   663   669   9   0.00   1.04600   1 ;    H13-    C8-   C11-    O6
   665   660   663   679   9   0.00   0.00000   0 ;    H13-    C8-   C11-   O10
   665   660   663   679   9   0.00   1.04600   1 ;    H13-    C8-   C11-   O10
   665   660   675   676   9   0.00   0.47279   3 ;    H13-    C8-    O8-   H20
   666   662   659   668   9   0.00   0.65084   3 ;    H14-   C10-    C7-   H16
   666   662   670   671   9   0.00   0.65084   3 ;    H14-   C10-   C12-   H17
   666   662   670   672   9   0.00   0.65084   3 ;    H14-   C10-   C12-   H18
   666   662   670   673   9   0.00   0.00000   0 ;    H14-   C10-   C12-    O7
   666   662   670   673   9   0.00   1.04600   1 ;    H14-   C10-   C12-    O7
   667   663   660   675   9   0.00   0.65084   3 ;    H15-   C11-    C8-    O8
   667   663   679   680   9   0.00   1.60387   3 ;    H15-   C11-   O10-   C13
   668   659   661   677   9   0.00   0.00000   0 ;    H16-    C7-    C9-    O9
   668   659   661   677   9   0.00   1.04600   1 ;    H16-    C7-    C9-    O9
   668   659   662   669   9   0.00   0.00000   0 ;    H16-    C7-   C10-    O6
   668   659   662   669   9   0.00   1.04600   1 ;    H16-    C7-   C10-    O6
   668   659   662   670   9   0.00   0.65084   3 ;    H16-    C7-   C10-   C12
   669   662   670   671   9   0.00   0.00000   0 ;     O6-   C10-   C12-   H17
   669   662   670   671   9   0.00   1.04600   1 ;     O6-   C10-   C12-   H17
   669   662   670   672   9   0.00   0.00000   0 ;     O6-   C10-   C12-   H18
   669   662   670   672   9   0.00   1.04600   1 ;     O6-   C10-   C12-   H18
   669   662   670   673   9   0.00   0.00000   0 ;     O6-   C10-   C12-    O7
   669   662   670   673   9   0.00   4.22584   3 ;     O6-   C10-   C12-    O7
   669   662   670   673   9   180.00   0.08368   1 ;     O6-   C10-   C12-    O7
   669   663   660   675   9   0.00   0.00000   0 ;     O6-   C11-    C8-    O8
   669   663   660   675   9   0.00   4.22584   3 ;     O6-   C11-    C8-    O8
   669   663   660   675   9   180.00   0.08368   1 ;     O6-   C11-    C8-    O8
   669   663   679   680   9   0.00   5.18816   2 ;     O6-   C11-   O10-   C13
   669   663   679   680   9   180.00   0.00000   3 ;     O6-   C11-   O10-   C13
   669   663   679   680   9   180.00   4.05848   1 ;     O6-   C11-   O10-   C13
   671   670   673   674   9   0.00   0.47279   3 ;    H17-   C12-    O7-   H19
   672   670   673   674   9   0.00   0.47279   3 ;    H18-   C12-    O7-   H19
   675   660   661   677   9   0.00   3.76560   3 ;     O8-    C8-    C9-    O9
   675   660   661   677   9   0.00   4.72792   2 ;     O8-    C8-    C9-    O9
   675   660   663   679   9   0.00   0.00000   0 ;     O8-    C8-   C11-   O10
   675   660   663   679   9   0.00   4.22584   3 ;     O8-    C8-   C11-   O10
   675   660   663   679   9   180.00   0.08368   1 ;     O8-    C8-   C11-   O10
   679   680   682   689   9   0.00   0.00000   0 ;    O10-   C13-   C15-   H26
   679   680   682   689   9   0.00   1.04600   1 ;    O10-   C13-   C15-   H26
   679   680   682   694   9   0.00   0.00000   0 ;    O10-   C13-   C15-   O13
   679   680   682   694   9   180.00   0.00000   2 ;    O10-   C13-   C15-   O13
   679   680   682   694   9   180.00   0.71128   1 ;    O10-   C13-   C15-   O13
   679   680   682   695   9   0.00   0.65084   3 ;    O10-   C13-   C15-   C18
   679   680   683   684   9   0.00   0.65084   3 ;    O10-   C13-   C16-   C17
   679   680   683   687   9   0.00   0.00000   0 ;    O10-   C13-   C16-   H24
   679   680   683   687   9   0.00   1.04600   1 ;    O10-   C13-   C16-   H24
   679   680   683   690   9   0.00   0.00000   0 ;    O10-   C13-   C16-   O11
   679   680   683   690   9   0.00   4.22584   3 ;    O10-   C13-   C16-   O11
   679   680   683   690   9   180.00   0.08368   1 ;    O10-   C13-   C16-   O11
   680   682   694   681   9   0.00   0.00000   0 ;    C13-   C15-   O13-   C14
   680   682   694   681   9   0.00   0.66944   2 ;    C13-   C15-   O13-   C14
   680   682   694   681   9   0.00   1.00416   3 ;    C13-   C15-   O13-   C14
   680   682   695   696   9   0.00   0.65084   3 ;    C13-   C15-   C18-   H29
   680   682   695   697   9   0.00   0.65084   3 ;    C13-   C15-   C18-   H30
   680   682   695   698   9   0.00   0.87864   3 ;    C13-   C15-   C18-   O14
   680   683   684   681   9   0.00   0.46024   1 ;    C13-   C16-   C17-   C14
   680   683   684   681   9   0.00   0.54392   3 ;    C13-   C16-   C17-   C14
   680   683   684   681   9   180.00   1.21336   2 ;    C13-   C16-   C17-   C14
   680   683   684   688   9   0.00   0.65084   3 ;    C13-   C16-   C17-   H25
   680   683   684   692   9   0.00   0.87864   3 ;    C13-   C16-   C17-   O12
   680   683   690   691   9   0.00   0.00000   0 ;    C13-   C16-   O11-   H27
   681   684   683   687   9   0.00   0.65084   3 ;    C14-   C17-   C16-   H24
   681   684   683   690   9   0.00   0.87864   3 ;    C14-   C17-   C16-   O11
   681   684   692   693   9   0.00   0.00000   0 ;    C14-   C17-   O12-   H28
   681   694   682   689   9   0.00   1.41001   3 ;    C14-   O13-   C15-   H26
   681   694   682   695   9   0.00   0.00000   0 ;    C14-   O13-   C15-   C18
   681   694   682   695   9   0.00   0.66944   2 ;    C14-   O13-   C15-   C18
   681   694   682   695   9   0.00   1.00416   3 ;    C14-   O13-   C15-   C18
   681   700   701   703   9   0.00   0.00000   0 ;    C14-   O15-   C19-   C21
   681   700   701   703   9   0.00   0.66944   2 ;    C14-   O15-   C19-   C21
   681   700   701   703   9   0.00   1.00416   3 ;    C14-   O15-   C19-   C21
   681   700   701   704   9   0.00   0.00000   0 ;    C14-   O15-   C19-   C22
   681   700   701   704   9   0.00   0.66944   2 ;    C14-   O15-   C19-   C22
   681   700   701   704   9   0.00   1.00416   3 ;    C14-   O15-   C19-   C22
   681   700   701   710   9   0.00   1.41001   3 ;    C14-   O15-   C19-   H36
   682   680   683   684   9   0.00   0.46024   1 ;    C15-   C13-   C16-   C17
   682   680   683   684   9   0.00   0.54392   3 ;    C15-   C13-   C16-   C17
   682   680   683   684   9   180.00   1.21336   2 ;    C15-   C13-   C16-   C17
   682   680   683   687   9   0.00   0.65084   3 ;    C15-   C13-   C16-   H24
   682   680   683   690   9   0.00   0.87864   3 ;    C15-   C13-   C16-   O11
   682   694   681   684   9   0.00   0.00000   0 ;    C15-   O13-   C14-   C17
   682   694   681   684   9   0.00   0.66944   2 ;    C15-   O13-   C14-   C17
   682   694   681   684   9   0.00   1.00416   3 ;    C15-   O13-   C14-   C17
   682   694   681   685   9   0.00   1.60387   3 ;    C15-   O13-   C14-   H22
   682   694   681   700   9   0.00   5.18816   2 ;    C15-   O13-   C14-   O15
   682   694   681   700   9   180.00   0.00000   3 ;    C15-   O13-   C14-   O15
   682   694   681   700   9   180.00   4.05848   1 ;    C15-   O13-   C14-   O15
   682   695   698   699   9   0.00   0.00000   0 ;    C15-   C18-   O14-   H31
   683   680   682   689   9   0.00   0.65084   3 ;    C16-   C13-   C15-   H26
   683   680   682   694   9   0.00   0.65084   3 ;    C16-   C13-   C15-   O13
   683   680   682   695   9   0.00   0.46024   1 ;    C16-   C13-   C15-   C18
   683   680   682   695   9   0.00   0.54392   3 ;    C16-   C13-   C15-   C18
   683   680   682   695   9   180.00   1.21336   2 ;    C16-   C13-   C15-   C18
   683   684   681   685   9   0.00   0.65084   3 ;    C16-   C17-   C14-   H22
   683   684   681   694   9   0.00   0.65084   3 ;    C16-   C17-   C14-   O13
   683   684   681   700   9   0.00   0.65084   3 ;    C16-   C17-   C14-   O15
   683   684   692   693   9   0.00   0.00000   0 ;    C16-   C17-   O12-   H28
   684   681   700   701   9   0.00   0.00000   0 ;    C17-   C14-   O15-   C19
   684   681   700   701   9   0.00   0.66944   2 ;    C17-   C14-   O15-   C19
   684   681   700   701   9   0.00   1.00416   3 ;    C17-   C14-   O15-   C19
   684   683   680   686   9   0.00   0.65084   3 ;    C17-   C16-   C13-   H23
   684   683   690   691   9   0.00   0.00000   0 ;    C17-   C16-   O11-   H27
   685   681   684   688   9   0.00   0.65084   3 ;    H22-   C14-   C17-   H25
   685   681   684   692   9   0.00   0.65084   3 ;    H22-   C14-   C17-   O12
   685   681   700   701   9   0.00   1.60387   3 ;    H22-   C14-   O15-   C19
   686   680   682   689   9   0.00   0.65084   3 ;    H23-   C13-   C15-   H26
   686   680   682   694   9   0.00   0.00000   0 ;    H23-   C13-   C15-   O13
   686   680   682   694   9   0.00   1.04600   1 ;    H23-   C13-   C15-   O13
   686   680   682   695   9   0.00   0.65084   3 ;    H23-   C13-   C15-   C18
   686   680   683   687   9   0.00   0.65084   3 ;    H23-   C13-   C16-   H24
   686   680   683   690   9   0.00   0.00000   0 ;    H23-   C13-   C16-   O11
   686   680   683   690   9   0.00   1.04600   1 ;    H23-   C13-   C16-   O11
   687   683   684   688   9   0.00   0.65084   3 ;    H24-   C16-   C17-   H25
   687   683   684   692   9   0.00   0.00000   0 ;    H24-   C16-   C17-   O12
   687   683   684   692   9   0.00   1.04600   1 ;    H24-   C16-   C17-   O12
   687   683   690   691   9   0.00   0.47279   3 ;    H24-   C16-   O11-   H27
   688   684   681   694   9   0.00   0.00000   0 ;    H25-   C17-   C14-   O13
   688   684   681   694   9   0.00   1.04600   1 ;    H25-   C17-   C14-   O13
   688   684   681   700   9   0.00   0.00000   0 ;    H25-   C17-   C14-   O15
   688   684   681   700   9   0.00   1.04600   1 ;    H25-   C17-   C14-   O15
   688   684   683   690   9   0.00   0.00000   0 ;    H25-   C17-   C16-   O11
   688   684   683   690   9   0.00   1.04600   1 ;    H25-   C17-   C16-   O11
   688   684   692   693   9   0.00   0.47279   3 ;    H25-   C17-   O12-   H28
   689   682   695   696   9   0.00   0.65084   3 ;    H26-   C15-   C18-   H29
   689   682   695   697   9   0.00   0.65084   3 ;    H26-   C15-   C18-   H30
   689   682   695   698   9   0.00   0.00000   0 ;    H26-   C15-   C18-   O14
   689   682   695   698   9   0.00   1.04600   1 ;    H26-   C15-   C18-   O14
   690   683   684   692   9   0.00   3.76560   3 ;    O11-   C16-   C17-   O12
   690   683   684   692   9   0.00   4.72792   2 ;    O11-   C16-   C17-   O12
   692   684   681   694   9   0.00   0.00000   0 ;    O12-   C17-   C14-   O13
   692   684   681   694   9   0.00   4.22584   3 ;    O12-   C17-   C14-   O13
   692   684   681   694   9   180.00   0.08368   1 ;    O12-   C17-   C14-   O13
   692   684   681   700   9   0.00   0.00000   0 ;    O12-   C17-   C14-   O15
   692   684   681   700   9   0.00   4.22584   3 ;    O12-   C17-   C14-   O15
   692   684   681   700   9   180.00   0.08368   1 ;    O12-   C17-   C14-   O15
   694   681   700   701   9   0.00   5.18816   2 ;    O13-   C14-   O15-   C19
   694   681   700   701   9   180.00   0.00000   3 ;    O13-   C14-   O15-   C19
   694   681   700   701   9   180.00   4.05848   1 ;    O13-   C14-   O15-   C19
   694   682   695   696   9   0.00   0.00000   0 ;    O13-   C15-   C18-   H29
   694   682   695   696   9   0.00   1.04600   1 ;    O13-   C15-   C18-   H29
   694   682   695   697   9   0.00   0.00000   0 ;    O13-   C15-   C18-   H30
   694   682   695   697   9   0.00   1.04600   1 ;    O13-   C15-   C18-   H30
   694   682   695   698   9   0.00   0.00000   0 ;    O13-   C15-   C18-   O14
   694   682   695   698   9   0.00   4.22584   3 ;    O13-   C15-   C18-   O14
   694   682   695   698   9   180.00   0.08368   1 ;    O13-   C15-   C18-   O14
   696   695   698   699   9   0.00   0.47279   3 ;    H29-   C18-   O14-   H31
   697   695   698   699   9   0.00   0.47279   3 ;    H30-   C18-   O14-   H31
   700   701   703   702   9   0.00   0.65084   3 ;    O15-   C19-   C21-   C20
   700   701   703   706   9   0.00   0.00000   0 ;    O15-   C19-   C21-   H32
   700   701   703   706   9   0.00   1.04600   1 ;    O15-   C19-   C21-   H32
   700   701   703   719   9   0.00   0.00000   0 ;    O15-   C19-   C21-   O19
   700   701   703   719   9   0.00   4.22584   3 ;    O15-   C19-   C21-   O19
   700   701   703   719   9   180.00   0.08368   1 ;    O15-   C19-   C21-   O19
   700   701   704   708   9   0.00   0.00000   0 ;    O15-   C19-   C22-   H34
   700   701   704   708   9   0.00   1.04600   1 ;    O15-   C19-   C22-   H34
   700   701   704   711   9   0.00   0.00000   0 ;    O15-   C19-   C22-   O16
   700   701   704   711   9   180.00   0.00000   2 ;    O15-   C19-   C22-   O16
   700   701   704   711   9   180.00   0.71128   1 ;    O15-   C19-   C22-   O16
   700   701   704   712   9   0.00   0.65084   3 ;    O15-   C19-   C22-   C24
   701   703   702   705   9   0.00   0.46024   1 ;    C19-   C21-   C20-   C23
   701   703   702   705   9   0.00   0.54392   3 ;    C19-   C21-   C20-   C23
   701   703   702   705   9   180.00   1.21336   2 ;    C19-   C21-   C20-   C23
   701   703   702   707   9   0.00   0.65084   3 ;    C19-   C21-   C20-   H33
   701   703   702   717   9   0.00   0.87864   3 ;    C19-   C21-   C20-   O18
   701   703   719   720   9   0.00   0.00000   0 ;    C19-   C21-   O19-   H41
   701   704   711   705   9   0.00   0.00000   0 ;    C19-   C22-   O16-   C23
   701   704   711   705   9   0.00   0.66944   2 ;    C19-   C22-   O16-   C23
   701   704   711   705   9   0.00   1.00416   3 ;    C19-   C22-   O16-   C23
   701   704   712   713   9   0.00   0.65084   3 ;    C19-   C22-   C24-   H37
   701   704   712   714   9   0.00   0.65084   3 ;    C19-   C22-   C24-   H38
   701   704   712   715   9   0.00   0.87864   3 ;    C19-   C22-   C24-   O17
   702   703   701   704   9   0.00   0.46024   1 ;    C20-   C21-   C19-   C22
   702   703   701   704   9   0.00   0.54392   3 ;    C20-   C21-   C19-   C22
   702   703   701   704   9   180.00   1.21336   2 ;    C20-   C21-   C19-   C22
   702   703   701   710   9   0.00   0.65084   3 ;    C20-   C21-   C19-   H36
   702   703   719   720   9   0.00   0.00000   0 ;    C20-   C21-   O19-   H41
   702   705   711   704   9   0.00   0.00000   0 ;    C20-   C23-   O16-   C22
   702   705   711   704   9   0.00   0.66944   2 ;    C20-   C23-   O16-   C22
   702   705   711   704   9   0.00   1.00416   3 ;    C20-   C23-   O16-   C22
   702   705   721   722   9   0.00   0.00000   0 ;    C20-   C23-   O20-   C25
   702   705   721   722   9   0.00   0.66944   2 ;    C20-   C23-   O20-   C25
   702   705   721   722   9   0.00   1.00416   3 ;    C20-   C23-   O20-   C25
   703   701   704   708   9   0.00   0.65084   3 ;    C21-   C19-   C22-   H34
   703   701   704   711   9   0.00   0.65084   3 ;    C21-   C19-   C22-   O16
   703   701   704   712   9   0.00   0.46024   1 ;    C21-   C19-   C22-   C24
   703   701   704   712   9   0.00   0.54392   3 ;    C21-   C19-   C22-   C24
   703   701   704   712   9   180.00   1.21336   2 ;    C21-   C19-   C22-   C24
   703   702   705   709   9   0.00   0.65084   3 ;    C21-   C20-   C23-   H35
   703   702   705   711   9   0.00   0.65084   3 ;    C21-   C20-   C23-   O16
   703   702   705   721   9   0.00   0.65084   3 ;    C21-   C20-   C23-   O20
   703   702   717   718   9   0.00   0.00000   0 ;    C21-   C20-   O18-   H40
   704   701   703   706   9   0.00   0.65084   3 ;    C22-   C19-   C21-   H32
   704   701   703   719   9   0.00   0.87864   3 ;    C22-   C19-   C21-   O19
   704   711   705   709   9   0.00   1.60387   3 ;    C22-   O16-   C23-   H35
   704   711   705   721   9   0.00   5.18816   2 ;    C22-   O16-   C23-   O20
   704   711   705   721   9   180.00   0.00000   3 ;    C22-   O16-   C23-   O20
   704   711   705   721   9   180.00   4.05848   1 ;    C22-   O16-   C23-   O20
   704   712   715   716   9   0.00   0.00000   0 ;    C22-   C24-   O17-   H39
   705   702   703   706   9   0.00   0.65084   3 ;    C23-   C20-   C21-   H32
   705   702   703   719   9   0.00   0.87864   3 ;    C23-   C20-   C21-   O19
   705   702   717   718   9   0.00   0.00000   0 ;    C23-   C20-   O18-   H40
   705   711   704   708   9   0.00   1.41001   3 ;    C23-   O16-   C22-   H34
   705   711   704   712   9   0.00   0.00000   0 ;    C23-   O16-   C22-   C24
   705   711   704   712   9   0.00   0.66944   2 ;    C23-   O16-   C22-   C24
   705   711   704   712   9   0.00   1.00416   3 ;    C23-   O16-   C22-   C24
   705   721   722   724   9   0.00   0.00000   0 ;    C23-   O20-   C25-   C27
   705   721   722   724   9   0.00   0.66944   2 ;    C23-   O20-   C25-   C27
   705   721   722   724   9   0.00   1.00416   3 ;    C23-   O20-   C25-   C27
   705   721   722   725   9   0.00   0.00000   0 ;    C23-   O20-   C25-   C28
   705   721   722   725   9   0.00   0.66944   2 ;    C23-   O20-   C25-   C28
   705   721   722   725   9   0.00   1.00416   3 ;    C23-   O20-   C25-   C28
   705   721   722   728   9   0.00   1.41001   3 ;    C23-   O20-   C25-   H43
   706   703   701   710   9   0.00   0.65084   3 ;    H32-   C21-   C19-   H36
   706   703   702   707   9   0.00   0.65084   3 ;    H32-   C21-   C20-   H33
   706   703   702   717   9   0.00   0.00000   0 ;    H32-   C21-   C20-   O18
   706   703   702   717   9   0.00   1.04600   1 ;    H32-   C21-   C20-   O18
   706   703   719   720   9   0.00   0.47279   3 ;    H32-   C21-   O19-   H41
   707   702   703   719   9   0.00   0.00000   0 ;    H33-   C20-   C21-   O19
   707   702   703   719   9   0.00   1.04600   1 ;    H33-   C20-   C21-   O19
   707   702   705   709   9   0.00   0.65084   3 ;    H33-   C20-   C23-   H35
   707   702   705   711   9   0.00   0.00000   0 ;    H33-   C20-   C23-   O16
   707   702   705   711   9   0.00   1.04600   1 ;    H33-   C20-   C23-   O16
   707   702   705   721   9   0.00   0.00000   0 ;    H33-   C20-   C23-   O20
   707   702   705   721   9   0.00   1.04600   1 ;    H33-   C20-   C23-   O20
   707   702   717   718   9   0.00   0.47279   3 ;    H33-   C20-   O18-   H40
   708   704   701   710   9   0.00   0.65084   3 ;    H34-   C22-   C19-   H36
   708   704   712   713   9   0.00   0.65084   3 ;    H34-   C22-   C24-   H37
   708   704   712   714   9   0.00   0.65084   3 ;    H34-   C22-   C24-   H38
   708   704   712   715   9   0.00   0.00000   0 ;    H34-   C22-   C24-   O17
   708   704   712   715   9   0.00   1.04600   1 ;    H34-   C22-   C24-   O17
   709   705   702   717   9   0.00   0.65084   3 ;    H35-   C23-   C20-   O18
   709   705   721   722   9   0.00   1.60387   3 ;    H35-   C23-   O20-   C25
   710   701   703   719   9   0.00   0.00000   0 ;    H36-   C19-   C21-   O19
   710   701   703   719   9   0.00   1.04600   1 ;    H36-   C19-   C21-   O19
   710   701   704   711   9   0.00   0.00000   0 ;    H36-   C19-   C22-   O16
   710   701   704   711   9   0.00   1.04600   1 ;    H36-   C19-   C22-   O16
   710   701   704   712   9   0.00   0.65084   3 ;    H36-   C19-   C22-   C24
   711   704   712   713   9   0.00   0.00000   0 ;    O16-   C22-   C24-   H37
   711   704   712   713   9   0.00   1.04600   1 ;    O16-   C22-   C24-   H37
   711   704   712   714   9   0.00   0.00000   0 ;    O16-   C22-   C24-   H38
   711   704   712   714   9   0.00   1.04600   1 ;    O16-   C22-   C24-   H38
   711   704   712   715   9   0.00   0.00000   0 ;    O16-   C22-   C24-   O17
   711   704   712   715   9   0.00   4.22584   3 ;    O16-   C22-   C24-   O17
   711   704   712   715   9   180.00   0.08368   1 ;    O16-   C22-   C24-   O17
   711   705   702   717   9   0.00   0.00000   0 ;    O16-   C23-   C20-   O18
   711   705   702   717   9   0.00   4.22584   3 ;    O16-   C23-   C20-   O18
   711   705   702   717   9   180.00   0.08368   1 ;    O16-   C23-   C20-   O18
   711   705   721   722   9   0.00   5.18816   2 ;    O16-   C23-   O20-   C25
   711   705   721   722   9   180.00   0.00000   3 ;    O16-   C23-   O20-   C25
   711   705   721   722   9   180.00   4.05848   1 ;    O16-   C23-   O20-   C25
   713   712   715   716   9   0.00   0.47279   3 ;    H37-   C24-   O17-   H39
   714   712   715   716   9   0.00   0.47279   3 ;    H38-   C24-   O17-   H39
   717   702   703   719   9   0.00   3.76560   3 ;    O18-   C20-   C21-   O19
   717   702   703   719   9   0.00   4.72792   2 ;    O18-   C20-   C21-   O19
   717   702   705   721   9   0.00   0.00000   0 ;    O18-   C20-   C23-   O20
   717   702   705   721   9   0.00   4.22584   3 ;    O18-   C20-   C23-   O20
   717   702   705   721   9   180.00   0.08368   1 ;    O18-   C20-   C23-   O20
   721   722   724   731   9   0.00   0.00000   0 ;    O20-   C25-   C27-   H46
   721   722   724   731   9   0.00   1.04600   1 ;    O20-   C25-   C27-   H46
   721   722   724   736   9   0.00   0.00000   0 ;    O20-   C25-   C27-   O23
   721   722   724   736   9   180.00   0.00000   2 ;    O20-   C25-   C27-   O23
   721   722   724   736   9   180.00   0.71128   1 ;    O20-   C25-   C27-   O23
   721   722   724   737   9   0.00   0.65084   3 ;    O20-   C25-   C27-   C30
   721   722   725   726   9   0.00   0.65084   3 ;    O20-   C25-   C28-   C29
   721   722   725   729   9   0.00   0.00000   0 ;    O20-   C25-   C28-   H44
   721   722   725   729   9   0.00   1.04600   1 ;    O20-   C25-   C28-   H44
   721   722   725   732   9   0.00   0.00000   0 ;    O20-   C25-   C28-   O21
   721   722   725   732   9   0.00   4.22584   3 ;    O20-   C25-   C28-   O21
   721   722   725   732   9   180.00   0.08368   1 ;    O20-   C25-   C28-   O21
   722   724   736   723   9   0.00   0.00000   0 ;    C25-   C27-   O23-   C26
   722   724   736   723   9   0.00   0.66944   2 ;    C25-   C27-   O23-   C26
   722   724   736   723   9   0.00   1.00416   3 ;    C25-   C27-   O23-   C26
   722   724   737   738   9   0.00   0.65084   3 ;    C25-   C27-   C30-   H49
   722   724   737   739   9   0.00   0.65084   3 ;    C25-   C27-   C30-   H50
   722   724   737   740   9   0.00   0.87864   3 ;    C25-   C27-   C30-   O24
   722   725   726   723   9   0.00   0.46024   1 ;    C25-   C28-   C29-   C26
   722   725   726   723   9   0.00   0.54392   3 ;    C25-   C28-   C29-   C26
   722   725   726   723   9   180.00   1.21336   2 ;    C25-   C28-   C29-   C26
   722   725   726   730   9   0.00   0.65084   3 ;    C25-   C28-   C29-   H45
   722   725   726   734   9   0.00   0.87864   3 ;    C25-   C28-   C29-   O22
   722   725   732   733   9   0.00   0.00000   0 ;    C25-   C28-   O21-   H47
   723   726   725   729   9   0.00   0.65084   3 ;    C26-   C29-   C28-   H44
   723   726   725   732   9   0.00   0.87864   3 ;    C26-   C29-   C28-   O21
   723   726   734   735   9   0.00   0.00000   0 ;    C26-   C29-   O22-   H48
   723   736   724   731   9   0.00   1.41001   3 ;    C26-   O23-   C27-   H46
   723   736   724   737   9   0.00   0.00000   0 ;    C26-   O23-   C27-   C30
   723   736   724   737   9   0.00   0.66944   2 ;    C26-   O23-   C27-   C30
   723   736   724   737   9   0.00   1.00416   3 ;    C26-   O23-   C27-   C30
   723   742   743   745   9   0.00   0.00000   0 ;    C26-   O25-   C31-   C33
   723   742   743   745   9   0.00   0.66944   2 ;    C26-   O25-   C31-   C33
   723   742   743   745   9   0.00   1.00416   3 ;    C26-   O25-   C31-   C33
   723   742   743   746   9   0.00   0.00000   0 ;    C26-   O25-   C31-   C34
   723   742   743   746   9   0.00   0.66944   2 ;    C26-   O25-   C31-   C34
   723   742   743   746   9   0.00   1.00416   3 ;    C26-   O25-   C31-   C34
   723   742   743   752   9   0.00   1.41001   3 ;    C26-   O25-   C31-   H56
   724   722   725   726   9   0.00   0.46024   1 ;    C27-   C25-   C28-   C29
   724   722   725   726   9   0.00   0.54392   3 ;    C27-   C25-   C28-   C29
   724   722   725   726   9   180.00   1.21336   2 ;    C27-   C25-   C28-   C29
   724   722   725   729   9   0.00   0.65084   3 ;    C27-   C25-   C28-   H44
   724   722   725   732   9   0.00   0.87864   3 ;    C27-   C25-   C28-   O21
   724   736   723   726   9   0.00   0.00000   0 ;    C27-   O23-   C26-   C29
   724   736   723   726   9   0.00   0.66944   2 ;    C27-   O23-   C26-   C29
   724   736   723   726   9   0.00   1.00416   3 ;    C27-   O23-   C26-   C29
   724   736   723   727   9   0.00   1.60387   3 ;    C27-   O23-   C26-   H42
   724   736   723   742   9   0.00   5.18816   2 ;    C27-   O23-   C26-   O25
   724   736   723   742   9   180.00   0.00000   3 ;    C27-   O23-   C26-   O25
   724   736   723   742   9   180.00   4.05848   1 ;    C27-   O23-   C26-   O25
   724   737   740   741   9   0.00   0.00000   0 ;    C27-   C30-   O24-   H51
   725   722   724   731   9   0.00   0.65084   3 ;    C28-   C25-   C27-   H46
   725   722   724   736   9   0.00   0.65084   3 ;    C28-   C25-   C27-   O23
   725   722   724   737   9   0.00   0.46024   1 ;    C28-   C25-   C27-   C30
   725   722   724   737   9   0.00   0.54392   3 ;    C28-   C25-   C27-   C30
   725   722   724   737   9   180.00   1.21336   2 ;    C28-   C25-   C27-   C30
   725   726   723   727   9   0.00   0.65084   3 ;    C28-   C29-   C26-   H42
   725   726   723   736   9   0.00   0.65084   3 ;    C28-   C29-   C26-   O23
   725   726   723   742   9   0.00   0.65084   3 ;    C28-   C29-   C26-   O25
   725   726   734   735   9   0.00   0.00000   0 ;    C28-   C29-   O22-   H48
   726   723   742   743   9   0.00   0.00000   0 ;    C29-   C26-   O25-   C31
   726   723   742   743   9   0.00   0.66944   2 ;    C29-   C26-   O25-   C31
   726   723   742   743   9   0.00   1.00416   3 ;    C29-   C26-   O25-   C31
   726   725   722   728   9   0.00   0.65084   3 ;    C29-   C28-   C25-   H43
   726   725   732   733   9   0.00   0.00000   0 ;    C29-   C28-   O21-   H47
   727   723   726   730   9   0.00   0.65084   3 ;    H42-   C26-   C29-   H45
   727   723   726   734   9   0.00   0.65084   3 ;    H42-   C26-   C29-   O22
   727   723   742   743   9   0.00   1.60387   3 ;    H42-   C26-   O25-   C31
   728   722   724   731   9   0.00   0.65084   3 ;    H43-   C25-   C27-   H46
   728   722   724   736   9   0.00   0.00000   0 ;    H43-   C25-   C27-   O23
   728   722   724   736   9   0.00   1.04600   1 ;    H43-   C25-   C27-   O23
   728   722   724   737   9   0.00   0.65084   3 ;    H43-   C25-   C27-   C30
   728   722   725   729   9   0.00   0.65084   3 ;    H43-   C25-   C28-   H44
   728   722   725   732   9   0.00   0.00000   0 ;    H43-   C25-   C28-   O21
   728   722   725   732   9   0.00   1.04600   1 ;    H43-   C25-   C28-   O21
   729   725   726   730   9   0.00   0.65084   3 ;    H44-   C28-   C29-   H45
   729   725   726   734   9   0.00   0.00000   0 ;    H44-   C28-   C29-   O22
   729   725   726   734   9   0.00   1.04600   1 ;    H44-   C28-   C29-   O22
   729   725   732   733   9   0.00   0.47279   3 ;    H44-   C28-   O21-   H47
   730   726   723   736   9   0.00   0.00000   0 ;    H45-   C29-   C26-   O23
   730   726   723   736   9   0.00   1.04600   1 ;    H45-   C29-   C26-   O23
   730   726   723   742   9   0.00   0.00000   0 ;    H45-   C29-   C26-   O25
   730   726   723   742   9   0.00   1.04600   1 ;    H45-   C29-   C26-   O25
   730   726   725   732   9   0.00   0.00000   0 ;    H45-   C29-   C28-   O21
   730   726   725   732   9   0.00   1.04600   1 ;    H45-   C29-   C28-   O21
   730   726   734   735   9   0.00   0.47279   3 ;    H45-   C29-   O22-   H48
   731   724   737   738   9   0.00   0.65084   3 ;    H46-   C27-   C30-   H49
   731   724   737   739   9   0.00   0.65084   3 ;    H46-   C27-   C30-   H50
   731   724   737   740   9   0.00   0.00000   0 ;    H46-   C27-   C30-   O24
   731   724   737   740   9   0.00   1.04600   1 ;    H46-   C27-   C30-   O24
   732   725   726   734   9   0.00   3.76560   3 ;    O21-   C28-   C29-   O22
   732   725   726   734   9   0.00   4.72792   2 ;    O21-   C28-   C29-   O22
   734   726   723   736   9   0.00   0.00000   0 ;    O22-   C29-   C26-   O23
   734   726   723   736   9   0.00   4.22584   3 ;    O22-   C29-   C26-   O23
   734   726   723   736   9   180.00   0.08368   1 ;    O22-   C29-   C26-   O23
   734   726   723   742   9   0.00   0.00000   0 ;    O22-   C29-   C26-   O25
   734   726   723   742   9   0.00   4.22584   3 ;    O22-   C29-   C26-   O25
   734   726   723   742   9   180.00   0.08368   1 ;    O22-   C29-   C26-   O25
   736   723   742   743   9   0.00   5.18816   2 ;    O23-   C26-   O25-   C31
   736   723   742   743   9   180.00   0.00000   3 ;    O23-   C26-   O25-   C31
   736   723   742   743   9   180.00   4.05848   1 ;    O23-   C26-   O25-   C31
   736   724   737   738   9   0.00   0.00000   0 ;    O23-   C27-   C30-   H49
   736   724   737   738   9   0.00   1.04600   1 ;    O23-   C27-   C30-   H49
   736   724   737   739   9   0.00   0.00000   0 ;    O23-   C27-   C30-   H50
   736   724   737   739   9   0.00   1.04600   1 ;    O23-   C27-   C30-   H50
   736   724   737   740   9   0.00   0.00000   0 ;    O23-   C27-   C30-   O24
   736   724   737   740   9   0.00   4.22584   3 ;    O23-   C27-   C30-   O24
   736   724   737   740   9   180.00   0.08368   1 ;    O23-   C27-   C30-   O24
   738   737   740   741   9   0.00   0.47279   3 ;    H49-   C30-   O24-   H51
   739   737   740   741   9   0.00   0.47279   3 ;    H50-   C30-   O24-   H51
   742   743   745   744   9   0.00   0.65084   3 ;    O25-   C31-   C33-   C32
   742   743   745   748   9   0.00   0.00000   0 ;    O25-   C31-   C33-   H52
   742   743   745   748   9   0.00   1.04600   1 ;    O25-   C31-   C33-   H52
   742   743   745   761   9   0.00   0.00000   0 ;    O25-   C31-   C33-   O29
   742   743   745   761   9   0.00   4.22584   3 ;    O25-   C31-   C33-   O29
   742   743   745   761   9   180.00   0.08368   1 ;    O25-   C31-   C33-   O29
   742   743   746   750   9   0.00   0.00000   0 ;    O25-   C31-   C34-   H54
   742   743   746   750   9   0.00   1.04600   1 ;    O25-   C31-   C34-   H54
   742   743   746   753   9   0.00   0.00000   0 ;    O25-   C31-   C34-   O26
   742   743   746   753   9   180.00   0.00000   2 ;    O25-   C31-   C34-   O26
   742   743   746   753   9   180.00   0.71128   1 ;    O25-   C31-   C34-   O26
   742   743   746   754   9   0.00   0.65084   3 ;    O25-   C31-   C34-   C36
   743   745   744   747   9   0.00   0.46024   1 ;    C31-   C33-   C32-   C35
   743   745   744   747   9   0.00   0.54392   3 ;    C31-   C33-   C32-   C35
   743   745   744   747   9   180.00   1.21336   2 ;    C31-   C33-   C32-   C35
   743   745   744   749   9   0.00   0.65084   3 ;    C31-   C33-   C32-   H53
   743   745   744   759   9   0.00   0.87864   3 ;    C31-   C33-   C32-   O28
   743   745   761   762   9   0.00   0.00000   0 ;    C31-   C33-   O29-   H61
   743   746   753   747   9   0.00   0.00000   0 ;    C31-   C34-   O26-   C35
   743   746   753   747   9   0.00   0.66944   2 ;    C31-   C34-   O26-   C35
   743   746   753   747   9   0.00   1.00416   3 ;    C31-   C34-   O26-   C35
   743   746   754   755   9   0.00   0.65084   3 ;    C31-   C34-   C36-   H57
   743   746   754   756   9   0.00   0.65084   3 ;    C31-   C34-   C36-   H58
   743   746   754   757   9   0.00   0.87864   3 ;    C31-   C34-   C36-   O27
   744   745   743   746   9   0.00   0.46024   1 ;    C32-   C33-   C31-   C34
   744   745   743   746   9   0.00   0.54392   3 ;    C32-   C33-   C31-   C34
   744   745   743   746   9   180.00   1.21336   2 ;    C32-   C33-   C31-   C34
   744   745   743   752   9   0.00   0.65084   3 ;    C32-   C33-   C31-   H56
   744   745   761   762   9   0.00   0.00000   0 ;    C32-   C33-   O29-   H61
   744   747   753   746   9   0.00   0.00000   0 ;    C32-   C35-   O26-   C34
   744   747   753   746   9   0.00   0.66944   2 ;    C32-   C35-   O26-   C34
   744   747   753   746   9   0.00   1.00416   3 ;    C32-   C35-   O26-   C34
   744   747   763   764   9   0.00   0.00000   0 ;    C32-   C35-   O30-   C37
   744   747   763   764   9   0.00   0.66944   2 ;    C32-   C35-   O30-   C37
   744   747   763   764   9   0.00   1.00416   3 ;    C32-   C35-   O30-   C37
   745   743   746   750   9   0.00   0.65084   3 ;    C33-   C31-   C34-   H54
   745   743   746   753   9   0.00   0.65084   3 ;    C33-   C31-   C34-   O26
   745   743   746   754   9   0.00   0.46024   1 ;    C33-   C31-   C34-   C36
   745   743   746   754   9   0.00   0.54392   3 ;    C33-   C31-   C34-   C36
   745   743   746   754   9   180.00   1.21336   2 ;    C33-   C31-   C34-   C36
   745   744   747   751   9   0.00   0.65084   3 ;    C33-   C32-   C35-   H55
   745   744   747   753   9   0.00   0.65084   3 ;    C33-   C32-   C35-   O26
   745   744   747   763   9   0.00   0.65084   3 ;    C33-   C32-   C35-   O30
   745   744   759   760   9   0.00   0.00000   0 ;    C33-   C32-   O28-   H60
   746   743   745   748   9   0.00   0.65084   3 ;    C34-   C31-   C33-   H52
   746   743   745   761   9   0.00   0.87864   3 ;    C34-   C31-   C33-   O29
   746   753   747   751   9   0.00   1.60387   3 ;    C34-   O26-   C35-   H55
   746   753   747   763   9   0.00   5.18816   2 ;    C34-   O26-   C35-   O30
   746   753   747   763   9   180.00   0.00000   3 ;    C34-   O26-   C35-   O30
   746   753   747   763   9   180.00   4.05848   1 ;    C34-   O26-   C35-   O30
   746   754   757   758   9   0.00   0.00000   0 ;    C34-   C36-   O27-   H59
   747   744   745   748   9   0.00   0.65084   3 ;    C35-   C32-   C33-   H52
   747   744   745   761   9   0.00   0.87864   3 ;    C35-   C32-   C33-   O29
   747   744   759   760   9   0.00   0.00000   0 ;    C35-   C32-   O28-   H60
   747   753   746   750   9   0.00   1.41001   3 ;    C35-   O26-   C34-   H54
   747   753   746   754   9   0.00   0.00000   0 ;    C35-   O26-   C34-   C36
   747   753   746   754   9   0.00   0.66944   2 ;    C35-   O26-   C34-   C36
   747   753   746   754   9   0.00   1.00416   3 ;    C35-   O26-   C34-   C36
   747   763   764   766   9   0.00   0.00000   0 ;    C35-   O30-   C37-   C39
   747   763   764   766   9   0.00   0.66944   2 ;    C35-   O30-   C37-   C39
   747   763   764   766   9   0.00   1.00416   3 ;    C35-   O30-   C37-   C39
   747   763   764   767   9   0.00   0.00000   0 ;    C35-   O30-   C37-   C40
   747   763   764   767   9   0.00   0.66944   2 ;    C35-   O30-   C37-   C40
   747   763   764   767   9   0.00   1.00416   3 ;    C35-   O30-   C37-   C40
   747   763   764   770   9   0.00   1.41001   3 ;    C35-   O30-   C37-   H63
   748   745   743   752   9   0.00   0.65084   3 ;    H52-   C33-   C31-   H56
   748   745   744   749   9   0.00   0.65084   3 ;    H52-   C33-   C32-   H53
   748   745   744   759   9   0.00   0.00000   0 ;    H52-   C33-   C32-   O28
   748   745   744   759   9   0.00   1.04600   1 ;    H52-   C33-   C32-   O28
   748   745   761   762   9   0.00   0.47279   3 ;    H52-   C33-   O29-   H61
   749   744   745   761   9   0.00   0.00000   0 ;    H53-   C32-   C33-   O29
   749   744   745   761   9   0.00   1.04600   1 ;    H53-   C32-   C33-   O29
   749   744   747   751   9   0.00   0.65084   3 ;    H53-   C32-   C35-   H55
   749   744   747   753   9   0.00   0.00000   0 ;    H53-   C32-   C35-   O26
   749   744   747   753   9   0.00   1.04600   1 ;    H53-   C32-   C35-   O26
   749   744   747   763   9   0.00   0.00000   0 ;    H53-   C32-   C35-   O30
   749   744   747   763   9   0.00   1.04600   1 ;    H53-   C32-   C35-   O30
   749   744   759   760   9   0.00   0.47279   3 ;    H53-   C32-   O28-   H60
   750   746   743   752   9   0.00   0.65084   3 ;    H54-   C34-   C31-   H56
   750   746   754   755   9   0.00   0.65084   3 ;    H54-   C34-   C36-   H57
   750   746   754   756   9   0.00   0.65084   3 ;    H54-   C34-   C36-   H58
   750   746   754   757   9   0.00   0.00000   0 ;    H54-   C34-   C36-   O27
   750   746   754   757   9   0.00   1.04600   1 ;    H54-   C34-   C36-   O27
   751   747   744   759   9   0.00   0.65084   3 ;    H55-   C35-   C32-   O28
   751   747   763   764   9   0.00   1.60387   3 ;    H55-   C35-   O30-   C37
   752   743   745   761   9   0.00   0.00000   0 ;    H56-   C31-   C33-   O29
   752   743   745   761   9   0.00   1.04600   1 ;    H56-   C31-   C33-   O29
   752   743   746   753   9   0.00   0.00000   0 ;    H56-   C31-   C34-   O26
   752   743   746   753   9   0.00   1.04600   1 ;    H56-   C31-   C34-   O26
   752   743   746   754   9   0.00   0.65084   3 ;    H56-   C31-   C34-   C36
   753   746   754   755   9   0.00   0.00000   0 ;    O26-   C34-   C36-   H57
   753   746   754   755   9   0.00   1.04600   1 ;    O26-   C34-   C36-   H57
   753   746   754   756   9   0.00   0.00000   0 ;    O26-   C34-   C36-   H58
   753   746   754   756   9   0.00   1.04600   1 ;    O26-   C34-   C36-   H58
   753   746   754   757   9   0.00   0.00000   0 ;    O26-   C34-   C36-   O27
   753   746   754   757   9   0.00   4.22584   3 ;    O26-   C34-   C36-   O27
   753   746   754   757   9   180.00   0.08368   1 ;    O26-   C34-   C36-   O27
   753   747   744   759   9   0.00   0.00000   0 ;    O26-   C35-   C32-   O28
   753   747   744   759   9   0.00   4.22584   3 ;    O26-   C35-   C32-   O28
   753   747   744   759   9   180.00   0.08368   1 ;    O26-   C35-   C32-   O28
   753   747   763   764   9   0.00   5.18816   2 ;    O26-   C35-   O30-   C37
   753   747   763   764   9   180.00   0.00000   3 ;    O26-   C35-   O30-   C37
   753   747   763   764   9   180.00   4.05848   1 ;    O26-   C35-   O30-   C37
   755   754   757   758   9   0.00   0.47279   3 ;    H57-   C36-   O27-   H59
   756   754   757   758   9   0.00   0.47279   3 ;    H58-   C36-   O27-   H59
   759   744   745   761   9   0.00   3.76560   3 ;    O28-   C32-   C33-   O29
   759   744   745   761   9   0.00   4.72792   2 ;    O28-   C32-   C33-   O29
   759   744   747   763   9   0.00   0.00000   0 ;    O28-   C32-   C35-   O30
   759   744   747   763   9   0.00   4.22584   3 ;    O28-   C32-   C35-   O30
   759   744   747   763   9   180.00   0.08368   1 ;    O28-   C32-   C35-   O30
   763   764   766   773   9   0.00   0.00000   0 ;    O30-   C37-   C39-   H66
   763   764   766   773   9   0.00   1.04600   1 ;    O30-   C37-   C39-   H66
   763   764   766   778   9   0.00   0.00000   0 ;    O30-   C37-   C39-   O33
   763   764   766   778   9   180.00   0.00000   2 ;    O30-   C37-   C39-   O33
   763   764   766   778   9   180.00   0.71128   1 ;    O30-   C37-   C39-   O33
   763   764   766   779   9   0.00   0.65084   3 ;    O30-   C37-   C39-   C42
   763   764   767   768   9   0.00   0.65084   3 ;    O30-   C37-   C40-   C41
   763   764   767   771   9   0.00   0.00000   0 ;    O30-   C37-   C40-   H64
   763   764   767   771   9   0.00   1.04600   1 ;    O30-   C37-   C40-   H64
   763   764   767   774   9   0.00   0.00000   0 ;    O30-   C37-   C40-   O31
   763   764   767   774   9   0.00   4.22584   3 ;    O30-   C37-   C40-   O31
   763   764   767   774   9   180.00   0.08368   1 ;    O30-   C37-   C40-   O31
   764   766   778   765   9   0.00   0.00000   0 ;    C37-   C39-   O33-   C38
   764   766   778   765   9   0.00   0.66944   2 ;    C37-   C39-   O33-   C38
   764   766   778   765   9   0.00   1.00416   3 ;    C37-   C39-   O33-   C38
   764   766   779   780   9   0.00   0.65084   3 ;    C37-   C39-   C42-   H69
   764   766   779   781   9   0.00   0.65084   3 ;    C37-   C39-   C42-   H70
   764   766   779   782   9   0.00   0.87864   3 ;    C37-   C39-   C42-   O34
   764   767   768   765   9   0.00   0.46024   1 ;    C37-   C40-   C41-   C38
   764   767   768   765   9   0.00   0.54392   3 ;    C37-   C40-   C41-   C38
   764   767   768   765   9   180.00   1.21336   2 ;    C37-   C40-   C41-   C38
   764   767   768   772   9   0.00   0.65084   3 ;    C37-   C40-   C41-   H65
   764   767   768   776   9   0.00   0.87864   3 ;    C37-   C40-   C41-   O32
   764   767   774   775   9   0.00   0.00000   0 ;    C37-   C40-   O31-   H67
   765   768   767   771   9   0.00   0.65084   3 ;    C38-   C41-   C40-   H64
   765   768   767   774   9   0.00   0.87864   3 ;    C38-   C41-   C40-   O31
   765   768   776   777   9   0.00   0.00000   0 ;    C38-   C41-   O32-   H68
   765   778   766   773   9   0.00   1.41001   3 ;    C38-   O33-   C39-   H66
   765   778   766   779   9   0.00   0.00000   0 ;    C38-   O33-   C39-   C42
   765   778   766   779   9   0.00   0.66944   2 ;    C38-   O33-   C39-   C42
   765   778   766   779   9   0.00   1.00416   3 ;    C38-   O33-   C39-   C42
   765   784   785   787   9   0.00   0.00000   0 ;    C38-   O35-   C43-   C45
   765   784   785   787   9   0.00   0.66944   2 ;    C38-   O35-   C43-   C45
   765   784   785   787   9   0.00   1.00416   3 ;    C38-   O35-   C43-   C45
   765   784   785   788   9   0.00   0.00000   0 ;    C38-   O35-   C43-   C46
   765   784   785   788   9   0.00   0.66944   2 ;    C38-   O35-   C43-   C46
   765   784   785   788   9   0.00   1.00416   3 ;    C38-   O35-   C43-   C46
   765   784   785   794   9   0.00   1.41001   3 ;    C38-   O35-   C43-   H76
   766   764   767   768   9   0.00   0.46024   1 ;    C39-   C37-   C40-   C41
   766   764   767   768   9   0.00   0.54392   3 ;    C39-   C37-   C40-   C41
   766   764   767   768   9   180.00   1.21336   2 ;    C39-   C37-   C40-   C41
   766   764   767   771   9   0.00   0.65084   3 ;    C39-   C37-   C40-   H64
   766   764   767   774   9   0.00   0.87864   3 ;    C39-   C37-   C40-   O31
   766   778   765   768   9   0.00   0.00000   0 ;    C39-   O33-   C38-   C41
   766   778   765   768   9   0.00   0.66944   2 ;    C39-   O33-   C38-   C41
   766   778   765   768   9   0.00   1.00416   3 ;    C39-   O33-   C38-   C41
   766   778   765   769   9   0.00   1.60387   3 ;    C39-   O33-   C38-   H62
   766   778   765   784   9   0.00   5.18816   2 ;    C39-   O33-   C38-   O35
   766   778   765   784   9   180.00   0.00000   3 ;    C39-   O33-   C38-   O35
   766   778   765   784   9   180.00   4.05848   1 ;    C39-   O33-   C38-   O35
   766   779   782   783   9   0.00   0.00000   0 ;    C39-   C42-   O34-   H71
   767   764   766   773   9   0.00   0.65084   3 ;    C40-   C37-   C39-   H66
   767   764   766   778   9   0.00   0.65084   3 ;    C40-   C37-   C39-   O33
   767   764   766   779   9   0.00   0.46024   1 ;    C40-   C37-   C39-   C42
   767   764   766   779   9   0.00   0.54392   3 ;    C40-   C37-   C39-   C42
   767   764   766   779   9   180.00   1.21336   2 ;    C40-   C37-   C39-   C42
   767   768   765   769   9   0.00   0.65084   3 ;    C40-   C41-   C38-   H62
   767   768   765   778   9   0.00   0.65084   3 ;    C40-   C41-   C38-   O33
   767   768   765   784   9   0.00   0.65084   3 ;    C40-   C41-   C38-   O35
   767   768   776   777   9   0.00   0.00000   0 ;    C40-   C41-   O32-   H68
   768   765   784   785   9   0.00   0.00000   0 ;    C41-   C38-   O35-   C43
   768   765   784   785   9   0.00   0.66944   2 ;    C41-   C38-   O35-   C43
   768   765   784   785   9   0.00   1.00416   3 ;    C41-   C38-   O35-   C43
   768   767   764   770   9   0.00   0.65084   3 ;    C41-   C40-   C37-   H63
   768   767   774   775   9   0.00   0.00000   0 ;    C41-   C40-   O31-   H67
   769   765   768   772   9   0.00   0.65084   3 ;    H62-   C38-   C41-   H65
   769   765   768   776   9   0.00   0.65084   3 ;    H62-   C38-   C41-   O32
   769   765   784   785   9   0.00   1.60387   3 ;    H62-   C38-   O35-   C43
   770   764   766   773   9   0.00   0.65084   3 ;    H63-   C37-   C39-   H66
   770   764   766   778   9   0.00   0.00000   0 ;    H63-   C37-   C39-   O33
   770   764   766   778   9   0.00   1.04600   1 ;    H63-   C37-   C39-   O33
   770   764   766   779   9   0.00   0.65084   3 ;    H63-   C37-   C39-   C42
   770   764   767   771   9   0.00   0.65084   3 ;    H63-   C37-   C40-   H64
   770   764   767   774   9   0.00   0.00000   0 ;    H63-   C37-   C40-   O31
   770   764   767   774   9   0.00   1.04600   1 ;    H63-   C37-   C40-   O31
   771   767   768   772   9   0.00   0.65084   3 ;    H64-   C40-   C41-   H65
   771   767   768   776   9   0.00   0.00000   0 ;    H64-   C40-   C41-   O32
   771   767   768   776   9   0.00   1.04600   1 ;    H64-   C40-   C41-   O32
   771   767   774   775   9   0.00   0.47279   3 ;    H64-   C40-   O31-   H67
   772   768   765   778   9   0.00   0.00000   0 ;    H65-   C41-   C38-   O33
   772   768   765   778   9   0.00   1.04600   1 ;    H65-   C41-   C38-   O33
   772   768   765   784   9   0.00   0.00000   0 ;    H65-   C41-   C38-   O35
   772   768   765   784   9   0.00   1.04600   1 ;    H65-   C41-   C38-   O35
   772   768   767   774   9   0.00   0.00000   0 ;    H65-   C41-   C40-   O31
   772   768   767   774   9   0.00   1.04600   1 ;    H65-   C41-   C40-   O31
   772   768   776   777   9   0.00   0.47279   3 ;    H65-   C41-   O32-   H68
   773   766   779   780   9   0.00   0.65084   3 ;    H66-   C39-   C42-   H69
   773   766   779   781   9   0.00   0.65084   3 ;    H66-   C39-   C42-   H70
   773   766   779   782   9   0.00   0.00000   0 ;    H66-   C39-   C42-   O34
   773   766   779   782   9   0.00   1.04600   1 ;    H66-   C39-   C42-   O34
   774   767   768   776   9   0.00   3.76560   3 ;    O31-   C40-   C41-   O32
   774   767   768   776   9   0.00   4.72792   2 ;    O31-   C40-   C41-   O32
   776   768   765   778   9   0.00   0.00000   0 ;    O32-   C41-   C38-   O33
   776   768   765   778   9   0.00   4.22584   3 ;    O32-   C41-   C38-   O33
   776   768   765   778   9   180.00   0.08368   1 ;    O32-   C41-   C38-   O33
   776   768   765   784   9   0.00   0.00000   0 ;    O32-   C41-   C38-   O35
   776   768   765   784   9   0.00   4.22584   3 ;    O32-   C41-   C38-   O35
   776   768   765   784   9   180.00   0.08368   1 ;    O32-   C41-   C38-   O35
   778   765   784   785   9   0.00   5.18816   2 ;    O33-   C38-   O35-   C43
   778   765   784   785   9   180.00   0.00000   3 ;    O33-   C38-   O35-   C43
   778   765   784   785   9   180.00   4.05848   1 ;    O33-   C38-   O35-   C43
   778   766   779   780   9   0.00   0.00000   0 ;    O33-   C39-   C42-   H69
   778   766   779   780   9   0.00   1.04600   1 ;    O33-   C39-   C42-   H69
   778   766   779   781   9   0.00   0.00000   0 ;    O33-   C39-   C42-   H70
   778   766   779   781   9   0.00   1.04600   1 ;    O33-   C39-   C42-   H70
   778   766   779   782   9   0.00   0.00000   0 ;    O33-   C39-   C42-   O34
   778   766   779   782   9   0.00   4.22584   3 ;    O33-   C39-   C42-   O34
   778   766   779   782   9   180.00   0.08368   1 ;    O33-   C39-   C42-   O34
   780   779   782   783   9   0.00   0.47279   3 ;    H69-   C42-   O34-   H71
   781   779   782   783   9   0.00   0.47279   3 ;    H70-   C42-   O34-   H71
   784   785   787   786   9   0.00   0.65084   3 ;    O35-   C43-   C45-   C44
   784   785   787   790   9   0.00   0.00000   0 ;    O35-   C43-   C45-   H72
   784   785   787   790   9   0.00   1.04600   1 ;    O35-   C43-   C45-   H72
   784   785   787   803   9   0.00   0.00000   0 ;    O35-   C43-   C45-   O39
   784   785   787   803   9   0.00   4.22584   3 ;    O35-   C43-   C45-   O39
   784   785   787   803   9   180.00   0.08368   1 ;    O35-   C43-   C45-   O39
   784   785   788   792   9   0.00   0.00000   0 ;    O35-   C43-   C46-   H74
   784   785   788   792   9   0.00   1.04600   1 ;    O35-   C43-   C46-   H74
   784   785   788   795   9   0.00   0.00000   0 ;    O35-   C43-   C46-   O36
   784   785   788   795   9   180.00   0.00000   2 ;    O35-   C43-   C46-   O36
   784   785   788   795   9   180.00   0.71128   1 ;    O35-   C43-   C46-   O36
   784   785   788   796   9   0.00   0.65084   3 ;    O35-   C43-   C46-   C48
   785   787   786   789   9   0.00   0.46024   1 ;    C43-   C45-   C44-   C47
   785   787   786   789   9   0.00   0.54392   3 ;    C43-   C45-   C44-   C47
   785   787   786   789   9   180.00   1.21336   2 ;    C43-   C45-   C44-   C47
   785   787   786   791   9   0.00   0.65084   3 ;    C43-   C45-   C44-   H73
   785   787   786   801   9   0.00   0.87864   3 ;    C43-   C45-   C44-   O38
   785   787   803   804   9   0.00   0.00000   0 ;    C43-   C45-   O39-   H81
   785   788   795   789   9   0.00   0.00000   0 ;    C43-   C46-   O36-   C47
   785   788   795   789   9   0.00   0.66944   2 ;    C43-   C46-   O36-   C47
   785   788   795   789   9   0.00   1.00416   3 ;    C43-   C46-   O36-   C47
   785   788   796   797   9   0.00   0.65084   3 ;    C43-   C46-   C48-   H77
   785   788   796   798   9   0.00   0.65084   3 ;    C43-   C46-   C48-   H78
   785   788   796   799   9   0.00   0.87864   3 ;    C43-   C46-   C48-   O37
   786   787   785   788   9   0.00   0.46024   1 ;    C44-   C45-   C43-   C46
   786   787   785   788   9   0.00   0.54392   3 ;    C44-   C45-   C43-   C46
   786   787   785   788   9   180.00   1.21336   2 ;    C44-   C45-   C43-   C46
   786   787   785   794   9   0.00   0.65084   3 ;    C44-   C45-   C43-   H76
   786   787   803   804   9   0.00   0.00000   0 ;    C44-   C45-   O39-   H81
   786   789   795   788   9   0.00   0.00000   0 ;    C44-   C47-   O36-   C46
   786   789   795   788   9   0.00   0.66944   2 ;    C44-   C47-   O36-   C46
   786   789   795   788   9   0.00   1.00416   3 ;    C44-   C47-   O36-   C46
   786   789   805   806   9   0.00   0.00000   0 ;    C44-   C47-   O40-   C49
   786   789   805   806   9   0.00   0.66944   2 ;    C44-   C47-   O40-   C49
   786   789   805   806   9   0.00   1.00416   3 ;    C44-   C47-   O40-   C49
   787   785   788   792   9   0.00   0.65084   3 ;    C45-   C43-   C46-   H74
   787   785   788   795   9   0.00   0.65084   3 ;    C45-   C43-   C46-   O36
   787   785   788   796   9   0.00   0.46024   1 ;    C45-   C43-   C46-   C48
   787   785   788   796   9   0.00   0.54392   3 ;    C45-   C43-   C46-   C48
   787   785   788   796   9   180.00   1.21336   2 ;    C45-   C43-   C46-   C48
   787   786   789   793   9   0.00   0.65084   3 ;    C45-   C44-   C47-   H75
   787   786   789   795   9   0.00   0.65084   3 ;    C45-   C44-   C47-   O36
   787   786   789   805   9   0.00   0.65084   3 ;    C45-   C44-   C47-   O40
   787   786   801   802   9   0.00   0.00000   0 ;    C45-   C44-   O38-   H80
   788   785   787   790   9   0.00   0.65084   3 ;    C46-   C43-   C45-   H72
   788   785   787   803   9   0.00   0.87864   3 ;    C46-   C43-   C45-   O39
   788   795   789   793   9   0.00   1.60387   3 ;    C46-   O36-   C47-   H75
   788   795   789   805   9   0.00   5.18816   2 ;    C46-   O36-   C47-   O40
   788   795   789   805   9   180.00   0.00000   3 ;    C46-   O36-   C47-   O40
   788   795   789   805   9   180.00   4.05848   1 ;    C46-   O36-   C47-   O40
   788   796   799   800   9   0.00   0.00000   0 ;    C46-   C48-   O37-   H79
   789   786   787   790   9   0.00   0.65084   3 ;    C47-   C44-   C45-   H72
   789   786   787   803   9   0.00   0.87864   3 ;    C47-   C44-   C45-   O39
   789   786   801   802   9   0.00   0.00000   0 ;    C47-   C44-   O38-   H80
   789   795   788   792   9   0.00   1.41001   3 ;    C47-   O36-   C46-   H74
   789   795   788   796   9   0.00   0.00000   0 ;    C47-   O36-   C46-   C48
   789   795   788   796   9   0.00   0.66944   2 ;    C47-   O36-   C46-   C48
   789   795   788   796   9   0.00   1.00416   3 ;    C47-   O36-   C46-   C48
   789   805   806   808   9   0.00   0.00000   0 ;    C47-   O40-   C49-   C51
   789   805   806   808   9   0.00   0.66944   2 ;    C47-   O40-   C49-   C51
   789   805   806   808   9   0.00   1.00416   3 ;    C47-   O40-   C49-   C51
   789   805   806   809   9   0.00   0.00000   0 ;    C47-   O40-   C49-   C52
   789   805   806   809   9   0.00   0.66944   2 ;    C47-   O40-   C49-   C52
   789   805   806   809   9   0.00   1.00416   3 ;    C47-   O40-   C49-   C52
   789   805   806   812   9   0.00   1.41001   3 ;    C47-   O40-   C49-   H83
   790   787   785   794   9   0.00   0.65084   3 ;    H72-   C45-   C43-   H76
   790   787   786   791   9   0.00   0.65084   3 ;    H72-   C45-   C44-   H73
   790   787   786   801   9   0.00   0.00000   0 ;    H72-   C45-   C44-   O38
   790   787   786   801   9   0.00   1.04600   1 ;    H72-   C45-   C44-   O38
   790   787   803   804   9   0.00   0.47279   3 ;    H72-   C45-   O39-   H81
   791   786   787   803   9   0.00   0.00000   0 ;    H73-   C44-   C45-   O39
   791   786   787   803   9   0.00   1.04600   1 ;    H73-   C44-   C45-   O39
   791   786   789   793   9   0.00   0.65084   3 ;    H73-   C44-   C47-   H75
   791   786   789   795   9   0.00   0.00000   0 ;    H73-   C44-   C47-   O36
   791   786   789   795   9   0.00   1.04600   1 ;    H73-   C44-   C47-   O36
   791   786   789   805   9   0.00   0.00000   0 ;    H73-   C44-   C47-   O40
   791   786   789   805   9   0.00   1.04600   1 ;    H73-   C44-   C47-   O40
   791   786   801   802   9   0.00   0.47279   3 ;    H73-   C44-   O38-   H80
   792   788   785   794   9   0.00   0.65084   3 ;    H74-   C46-   C43-   H76
   792   788   796   797   9   0.00   0.65084   3 ;    H74-   C46-   C48-   H77
   792   788   796   798   9   0.00   0.65084   3 ;    H74-   C46-   C48-   H78
   792   788   796   799   9   0.00   0.00000   0 ;    H74-   C46-   C48-   O37
   792   788   796   799   9   0.00   1.04600   1 ;    H74-   C46-   C48-   O37
   793   789   786   801   9   0.00   0.65084   3 ;    H75-   C47-   C44-   O38
   793   789   805   806   9   0.00   1.60387   3 ;    H75-   C47-   O40-   C49
   794   785   787   803   9   0.00   0.00000   0 ;    H76-   C43-   C45-   O39
   794   785   787   803   9   0.00   1.04600   1 ;    H76-   C43-   C45-   O39
   794   785   788   795   9   0.00   0.00000   0 ;    H76-   C43-   C46-   O36
   794   785   788   795   9   0.00   1.04600   1 ;    H76-   C43-   C46-   O36
   794   785   788   796   9   0.00   0.65084   3 ;    H76-   C43-   C46-   C48
   795   788   796   797   9   0.00   0.00000   0 ;    O36-   C46-   C48-   H77
   795   788   796   797   9   0.00   1.04600   1 ;    O36-   C46-   C48-   H77
   795   788   796   798   9   0.00   0.00000   0 ;    O36-   C46-   C48-   H78
   795   788   796   798   9   0.00   1.04600   1 ;    O36-   C46-   C48-   H78
   795   788   796   799   9   0.00   0.00000   0 ;    O36-   C46-   C48-   O37
   795   788   796   799   9   0.00   4.22584   3 ;    O36-   C46-   C48-   O37
   795   788   796   799   9   180.00   0.08368   1 ;    O36-   C46-   C48-   O37
   795   789   786   801   9   0.00   0.00000   0 ;    O36-   C47-   C44-   O38
   795   789   786   801   9   0.00   4.22584   3 ;    O36-   C47-   C44-   O38
   795   789   786   801   9   180.00   0.08368   1 ;    O36-   C47-   C44-   O38
   795   789   805   806   9   0.00   5.18816   2 ;    O36-   C47-   O40-   C49
   795   789   805   806   9   180.00   0.00000   3 ;    O36-   C47-   O40-   C49
   795   789   805   806   9   180.00   4.05848   1 ;    O36-   C47-   O40-   C49
   797   796   799   800   9   0.00   0.47279   3 ;    H77-   C48-   O37-   H79
   798   796   799   800   9   0.00   0.47279   3 ;    H78-   C48-   O37-   H79
   801   786   787   803   9   0.00   3.76560   3 ;    O38-   C44-   C45-   O39
   801   786   787   803   9   0.00   4.72792   2 ;    O38-   C44-   C45-   O39
   801   786   789   805   9   0.00   0.00000   0 ;    O38-   C44-   C47-   O40
   801   786   789   805   9   0.00   4.22584   3 ;    O38-   C44-   C47-   O40
   801   786   789   805   9   180.00   0.08368   1 ;    O38-   C44-   C47-   O40
   805   806   808   815   9   0.00   0.00000   0 ;    O40-   C49-   C51-   H86
   805   806   808   815   9   0.00   1.04600   1 ;    O40-   C49-   C51-   H86
   805   806   808   820   9   0.00   0.00000   0 ;    O40-   C49-   C51-   O43
   805   806   808   820   9   180.00   0.00000   2 ;    O40-   C49-   C51-   O43
   805   806   808   820   9   180.00   0.71128   1 ;    O40-   C49-   C51-   O43
   805   806   808   821   9   0.00   0.65084   3 ;    O40-   C49-   C51-   C54
   805   806   809   810   9   0.00   0.65084   3 ;    O40-   C49-   C52-   C53
   805   806   809   813   9   0.00   0.00000   0 ;    O40-   C49-   C52-   H84
   805   806   809   813   9   0.00   1.04600   1 ;    O40-   C49-   C52-   H84
   805   806   809   816   9   0.00   0.00000   0 ;    O40-   C49-   C52-   O41
   805   806   809   816   9   0.00   4.22584   3 ;    O40-   C49-   C52-   O41
   805   806   809   816   9   180.00   0.08368   1 ;    O40-   C49-   C52-   O41
   806   808   820   807   9   0.00   0.00000   0 ;    C49-   C51-   O43-   C50
   806   808   820   807   9   0.00   0.66944   2 ;    C49-   C51-   O43-   C50
   806   808   820   807   9   0.00   1.00416   3 ;    C49-   C51-   O43-   C50
   806   808   821   822   9   0.00   0.65084   3 ;    C49-   C51-   C54-   H89
   806   808   821   823   9   0.00   0.65084   3 ;    C49-   C51-   C54-   H90
   806   808   821   824   9   0.00   0.87864   3 ;    C49-   C51-   C54-   O44
   806   809   810   807   9   0.00   0.46024   1 ;    C49-   C52-   C53-   C50
   806   809   810   807   9   0.00   0.54392   3 ;    C49-   C52-   C53-   C50
   806   809   810   807   9   180.00   1.21336   2 ;    C49-   C52-   C53-   C50
   806   809   810   814   9   0.00   0.65084   3 ;    C49-   C52-   C53-   H85
   806   809   810   818   9   0.00   0.87864   3 ;    C49-   C52-   C53-   O42
   806   809   816   817   9   0.00   0.00000   0 ;    C49-   C52-   O41-   H87
   807   810   809   813   9   0.00   0.65084   3 ;    C50-   C53-   C52-   H84
   807   810   809   816   9   0.00   0.87864   3 ;    C50-   C53-   C52-   O41
   807   810   818   819   9   0.00   0.00000   0 ;    C50-   C53-   O42-   H88
   807   820   808   815   9   0.00   1.41001   3 ;    C50-   O43-   C51-   H86
   807   820   808   821   9   0.00   0.00000   0 ;    C50-   O43-   C51-   C54
   807   820   808   821   9   0.00   0.66944   2 ;    C50-   O43-   C51-   C54
   807   820   808   821   9   0.00   1.00416   3 ;    C50-   O43-   C51-   C54
   807   826   827   829   9   0.00   0.00000   0 ;    C50-   O45-   C55-   C57
   807   826   827   829   9   0.00   0.66944   2 ;    C50-   O45-   C55-   C57
   807   826   827   829   9   0.00   1.00416   3 ;    C50-   O45-   C55-   C57
   807   826   827   830   9   0.00   0.00000   0 ;    C50-   O45-   C55-   C58
   807   826   827   830   9   0.00   0.66944   2 ;    C50-   O45-   C55-   C58
   807   826   827   830   9   0.00   1.00416   3 ;    C50-   O45-   C55-   C58
   807   826   827   836   9   0.00   1.41001   3 ;    C50-   O45-   C55-   H96
   808   806   809   810   9   0.00   0.46024   1 ;    C51-   C49-   C52-   C53
   808   806   809   810   9   0.00   0.54392   3 ;    C51-   C49-   C52-   C53
   808   806   809   810   9   180.00   1.21336   2 ;    C51-   C49-   C52-   C53
   808   806   809   813   9   0.00   0.65084   3 ;    C51-   C49-   C52-   H84
   808   806   809   816   9   0.00   0.87864   3 ;    C51-   C49-   C52-   O41
   808   820   807   810   9   0.00   0.00000   0 ;    C51-   O43-   C50-   C53
   808   820   807   810   9   0.00   0.66944   2 ;    C51-   O43-   C50-   C53
   808   820   807   810   9   0.00   1.00416   3 ;    C51-   O43-   C50-   C53
   808   820   807   811   9   0.00   1.60387   3 ;    C51-   O43-   C50-   H82
   808   820   807   826   9   0.00   5.18816   2 ;    C51-   O43-   C50-   O45
   808   820   807   826   9   180.00   0.00000   3 ;    C51-   O43-   C50-   O45
   808   820   807   826   9   180.00   4.05848   1 ;    C51-   O43-   C50-   O45
   808   821   824   825   9   0.00   0.00000   0 ;    C51-   C54-   O44-   H91
   809   806   808   815   9   0.00   0.65084   3 ;    C52-   C49-   C51-   H86
   809   806   808   820   9   0.00   0.65084   3 ;    C52-   C49-   C51-   O43
   809   806   808   821   9   0.00   0.46024   1 ;    C52-   C49-   C51-   C54
   809   806   808   821   9   0.00   0.54392   3 ;    C52-   C49-   C51-   C54
   809   806   808   821   9   180.00   1.21336   2 ;    C52-   C49-   C51-   C54
   809   810   807   811   9   0.00   0.65084   3 ;    C52-   C53-   C50-   H82
   809   810   807   820   9   0.00   0.65084   3 ;    C52-   C53-   C50-   O43
   809   810   807   826   9   0.00   0.65084   3 ;    C52-   C53-   C50-   O45
   809   810   818   819   9   0.00   0.00000   0 ;    C52-   C53-   O42-   H88
   810   807   826   827   9   0.00   0.00000   0 ;    C53-   C50-   O45-   C55
   810   807   826   827   9   0.00   0.66944   2 ;    C53-   C50-   O45-   C55
   810   807   826   827   9   0.00   1.00416   3 ;    C53-   C50-   O45-   C55
   810   809   806   812   9   0.00   0.65084   3 ;    C53-   C52-   C49-   H83
   810   809   816   817   9   0.00   0.00000   0 ;    C53-   C52-   O41-   H87
   811   807   810   814   9   0.00   0.65084   3 ;    H82-   C50-   C53-   H85
   811   807   810   818   9   0.00   0.65084   3 ;    H82-   C50-   C53-   O42
   811   807   826   827   9   0.00   1.60387   3 ;    H82-   C50-   O45-   C55
   812   806   808   815   9   0.00   0.65084   3 ;    H83-   C49-   C51-   H86
   812   806   808   820   9   0.00   0.00000   0 ;    H83-   C49-   C51-   O43
   812   806   808   820   9   0.00   1.04600   1 ;    H83-   C49-   C51-   O43
   812   806   808   821   9   0.00   0.65084   3 ;    H83-   C49-   C51-   C54
   812   806   809   813   9   0.00   0.65084   3 ;    H83-   C49-   C52-   H84
   812   806   809   816   9   0.00   0.00000   0 ;    H83-   C49-   C52-   O41
   812   806   809   816   9   0.00   1.04600   1 ;    H83-   C49-   C52-   O41
   813   809   810   814   9   0.00   0.65084   3 ;    H84-   C52-   C53-   H85
   813   809   810   818   9   0.00   0.00000   0 ;    H84-   C52-   C53-   O42
   813   809   810   818   9   0.00   1.04600   1 ;    H84-   C52-   C53-   O42
   813   809   816   817   9   0.00   0.47279   3 ;    H84-   C52-   O41-   H87
   814   810   807   820   9   0.00   0.00000   0 ;    H85-   C53-   C50-   O43
   814   810   807   820   9   0.00   1.04600   1 ;    H85-   C53-   C50-   O43
   814   810   807   826   9   0.00   0.00000   0 ;    H85-   C53-   C50-   O45
   814   810   807   826   9   0.00   1.04600   1 ;    H85-   C53-   C50-   O45
   814   810   809   816   9   0.00   0.00000   0 ;    H85-   C53-   C52-   O41
   814   810   809   816   9   0.00   1.04600   1 ;    H85-   C53-   C52-   O41
   814   810   818   819   9   0.00   0.47279   3 ;    H85-   C53-   O42-   H88
   815   808   821   822   9   0.00   0.65084   3 ;    H86-   C51-   C54-   H89
   815   808   821   823   9   0.00   0.65084   3 ;    H86-   C51-   C54-   H90
   815   808   821   824   9   0.00   0.00000   0 ;    H86-   C51-   C54-   O44
   815   808   821   824   9   0.00   1.04600   1 ;    H86-   C51-   C54-   O44
   816   809   810   818   9   0.00   3.76560   3 ;    O41-   C52-   C53-   O42
   816   809   810   818   9   0.00   4.72792   2 ;    O41-   C52-   C53-   O42
   818   810   807   820   9   0.00   0.00000   0 ;    O42-   C53-   C50-   O43
   818   810   807   820   9   0.00   4.22584   3 ;    O42-   C53-   C50-   O43
   818   810   807   820   9   180.00   0.08368   1 ;    O42-   C53-   C50-   O43
   818   810   807   826   9   0.00   0.00000   0 ;    O42-   C53-   C50-   O45
   818   810   807   826   9   0.00   4.22584   3 ;    O42-   C53-   C50-   O45
   818   810   807   826   9   180.00   0.08368   1 ;    O42-   C53-   C50-   O45
   820   807   826   827   9   0.00   5.18816   2 ;    O43-   C50-   O45-   C55
   820   807   826   827   9   180.00   0.00000   3 ;    O43-   C50-   O45-   C55
   820   807   826   827   9   180.00   4.05848   1 ;    O43-   C50-   O45-   C55
   820   808   821   822   9   0.00   0.00000   0 ;    O43-   C51-   C54-   H89
   820   808   821   822   9   0.00   1.04600   1 ;    O43-   C51-   C54-   H89
   820   808   821   823   9   0.00   0.00000   0 ;    O43-   C51-   C54-   H90
   820   808   821   823   9   0.00   1.04600   1 ;    O43-   C51-   C54-   H90
   820   808   821   824   9   0.00   0.00000   0 ;    O43-   C51-   C54-   O44
   820   808   821   824   9   0.00   4.22584   3 ;    O43-   C51-   C54-   O44
   820   808   821   824   9   180.00   0.08368   1 ;    O43-   C51-   C54-   O44
   822   821   824   825   9   0.00   0.47279   3 ;    H89-   C54-   O44-   H91
   823   821   824   825   9   0.00   0.47279   3 ;    H90-   C54-   O44-   H91
   826   827   829   828   9   0.00   0.65084   3 ;    O45-   C55-   C57-   C56
   826   827   829   832   9   0.00   0.00000   0 ;    O45-   C55-   C57-   H92
   826   827   829   832   9   0.00   1.04600   1 ;    O45-   C55-   C57-   H92
   826   827   829   845   9   0.00   0.00000   0 ;    O45-   C55-   C57-   O49
   826   827   829   845   9   0.00   4.22584   3 ;    O45-   C55-   C57-   O49
   826   827   829   845   9   180.00   0.08368   1 ;    O45-   C55-   C57-   O49
   826   827   830   834   9   0.00   0.00000   0 ;    O45-   C55-   C58-   H94
   826   827   830   834   9   0.00   1.04600   1 ;    O45-   C55-   C58-   H94
   826   827   830   837   9   0.00   0.00000   0 ;    O45-   C55-   C58-   O46
   826   827   830   837   9   180.00   0.00000   2 ;    O45-   C55-   C58-   O46
   826   827   830   837   9   180.00   0.71128   1 ;    O45-   C55-   C58-   O46
   826   827   830   838   9   0.00   0.65084   3 ;    O45-   C55-   C58-   C60
   827   829   828   831   9   0.00   0.46024   1 ;    C55-   C57-   C56-   C59
   827   829   828   831   9   0.00   0.54392   3 ;    C55-   C57-   C56-   C59
   827   829   828   831   9   180.00   1.21336   2 ;    C55-   C57-   C56-   C59
   827   829   828   833   9   0.00   0.65084   3 ;    C55-   C57-   C56-   H93
   827   829   828   843   9   0.00   0.87864   3 ;    C55-   C57-   C56-   O48
   827   829   845   846   9   0.00   0.00000   0 ;    C55-   C57-   O49-  H101
   827   830   837   831   9   0.00   0.00000   0 ;    C55-   C58-   O46-   C59
   827   830   837   831   9   0.00   0.66944   2 ;    C55-   C58-   O46-   C59
   827   830   837   831   9   0.00   1.00416   3 ;    C55-   C58-   O46-   C59
   827   830   838   839   9   0.00   0.65084   3 ;    C55-   C58-   C60-   H97
   827   830   838   840   9   0.00   0.65084   3 ;    C55-   C58-   C60-   H98
   827   830   838   841   9   0.00   0.87864   3 ;    C55-   C58-   C60-   O47
   828   829   827   830   9   0.00   0.46024   1 ;    C56-   C57-   C55-   C58
   828   829   827   830   9   0.00   0.54392   3 ;    C56-   C57-   C55-   C58
   828   829   827   830   9   180.00   1.21336   2 ;    C56-   C57-   C55-   C58
   828   829   827   836   9   0.00   0.65084   3 ;    C56-   C57-   C55-   H96
   828   829   845   846   9   0.00   0.00000   0 ;    C56-   C57-   O49-  H101
   828   831   837   830   9   0.00   0.00000   0 ;    C56-   C59-   O46-   C58
   828   831   837   830   9   0.00   0.66944   2 ;    C56-   C59-   O46-   C58
   828   831   837   830   9   0.00   1.00416   3 ;    C56-   C59-   O46-   C58
   828   831   847   848   9   0.00   0.00000   0 ;    C56-   C59-   O50-  H102
   829   827   830   834   9   0.00   0.65084   3 ;    C57-   C55-   C58-   H94
   829   827   830   837   9   0.00   0.65084   3 ;    C57-   C55-   C58-   O46
   829   827   830   838   9   0.00   0.46024   1 ;    C57-   C55-   C58-   C60
   829   827   830   838   9   0.00   0.54392   3 ;    C57-   C55-   C58-   C60
   829   827   830   838   9   180.00   1.21336   2 ;    C57-   C55-   C58-   C60
   829   828   831   835   9   0.00   0.65084   3 ;    C57-   C56-   C59-   H95
   829   828   831   837   9   0.00   0.65084   3 ;    C57-   C56-   C59-   O46
   829   828   831   847   9   0.00   0.87864   3 ;    C57-   C56-   C59-   O50
   829   828   843   844   9   0.00   0.00000   0 ;    C57-   C56-   O48-  H100
   830   827   829   832   9   0.00   0.65084   3 ;    C58-   C55-   C57-   H92
   830   827   829   845   9   0.00   0.87864   3 ;    C58-   C55-   C57-   O49
   830   837   831   835   9   0.00   1.60387   3 ;    C58-   O46-   C59-   H95
   830   837   831   847   9   0.00   1.60387   3 ;    C58-   O46-   C59-   O50
   830   838   841   842   9   0.00   0.00000   0 ;    C58-   C60-   O47-   H99
   831   828   829   832   9   0.00   0.65084   3 ;    C59-   C56-   C57-   H92
   831   828   829   845   9   0.00   0.87864   3 ;    C59-   C56-   C57-   O49
   831   828   843   844   9   0.00   0.00000   0 ;    C59-   C56-   O48-  H100
   831   837   830   834   9   0.00   1.41001   3 ;    C59-   O46-   C58-   H94
   831   837   830   838   9   0.00   0.00000   0 ;    C59-   O46-   C58-   C60
   831   837   830   838   9   0.00   0.66944   2 ;    C59-   O46-   C58-   C60
   831   837   830   838   9   0.00   1.00416   3 ;    C59-   O46-   C58-   C60
   832   829   827   836   9   0.00   0.65084   3 ;    H92-   C57-   C55-   H96
   832   829   828   833   9   0.00   0.65084   3 ;    H92-   C57-   C56-   H93
   832   829   828   843   9   0.00   0.00000   0 ;    H92-   C57-   C56-   O48
   832   829   828   843   9   0.00   1.04600   1 ;    H92-   C57-   C56-   O48
   832   829   845   846   9   0.00   0.47279   3 ;    H92-   C57-   O49-  H101
   833   828   829   845   9   0.00   0.00000   0 ;    H93-   C56-   C57-   O49
   833   828   829   845   9   0.00   1.04600   1 ;    H93-   C56-   C57-   O49
   833   828   831   835   9   0.00   0.65084   3 ;    H93-   C56-   C59-   H95
   833   828   831   837   9   0.00   0.00000   0 ;    H93-   C56-   C59-   O46
   833   828   831   837   9   0.00   1.04600   1 ;    H93-   C56-   C59-   O46
   833   828   831   847   9   0.00   0.00000   0 ;    H93-   C56-   C59-   O50
   833   828   831   847   9   0.00   1.04600   1 ;    H93-   C56-   C59-   O50
   833   828   843   844   9   0.00   0.47279   3 ;    H93-   C56-   O48-  H100
   834   830   827   836   9   0.00   0.65084   3 ;    H94-   C58-   C55-   H96
   834   830   838   839   9   0.00   0.65084   3 ;    H94-   C58-   C60-   H97
   834   830   838   840   9   0.00   0.65084   3 ;    H94-   C58-   C60-   H98
   834   830   838   841   9   0.00   0.00000   0 ;    H94-   C58-   C60-   O47
   834   830   838   841   9   0.00   1.04600   1 ;    H94-   C58-   C60-   O47
   835   831   828   843   9   0.00   0.65084   3 ;    H95-   C59-   C56-   O48
   835   831   847   848   9   0.00   0.69733   3 ;    H95-   C59-   O50-  H102
   836   827   829   845   9   0.00   0.00000   0 ;    H96-   C55-   C57-   O49
   836   827   829   845   9   0.00   1.04600   1 ;    H96-   C55-   C57-   O49
   836   827   830   837   9   0.00   0.00000   0 ;    H96-   C55-   C58-   O46
   836   827   830   837   9   0.00   1.04600   1 ;    H96-   C55-   C58-   O46
   836   827   830   838   9   0.00   0.65084   3 ;    H96-   C55-   C58-   C60
   837   830   838   839   9   0.00   0.00000   0 ;    O46-   C58-   C60-   H97
   837   830   838   839   9   0.00   1.04600   1 ;    O46-   C58-   C60-   H97
   837   830   838   840   9   0.00   0.00000   0 ;    O46-   C58-   C60-   H98
   837   830   838   840   9   0.00   1.04600   1 ;    O46-   C58-   C60-   H98
   837   830   838   841   9   0.00   0.00000   0 ;    O46-   C58-   C60-   O47
   837   830   838   841   9   0.00   4.22584   3 ;    O46-   C58-   C60-   O47
   837   830   838   841   9   180.00   0.08368   1 ;    O46-   C58-   C60-   O47
   837   831   828   843   9   0.00   0.00000   0 ;    O46-   C59-   C56-   O48
   837   831   828   843   9   0.00   4.22584   3 ;    O46-   C59-   C56-   O48
   837   831   828   843   9   180.00   0.08368   1 ;    O46-   C59-   C56-   O48
   837   831   847   848   9   0.00   0.69733   3 ;    O46-   C59-   O50-  H102
   839   838   841   842   9   0.00   0.47279   3 ;    H97-   C60-   O47-   H99
   840   838   841   842   9   0.00   0.47279   3 ;    H98-   C60-   O47-   H99
   843   828   829   845   9   0.00   3.76560   3 ;    O48-   C56-   C57-   O49
   843   828   829   845   9   0.00   4.72792   2 ;    O48-   C56-   C57-   O49
   843   828   831   847   9   0.00   3.76560   3 ;    O48-   C56-   C59-   O50
   843   828   831   847   9   0.00   4.72792   2 ;    O48-   C56-   C59-   O50
   849   850   852   859   9   0.00   0.65084   3 ;     H1-    C1-    C3-    H6
   849   850   852   864   9   0.00   0.00000   0 ;     H1-    C1-    C3-    O3
   849   850   852   864   9   0.00   1.04600   1 ;     H1-    C1-    C3-    O3
   849   850   852   865   9   0.00   0.33472   3 ;     H1-    C1-    C3-    C6
   849   850   853   854   9   0.00   0.33472   3 ;     H1-    C1-    C4-    C5
   849   850   853   857   9   0.00   0.65084   3 ;     H1-    C1-    C4-    H4
   849   850   853   860   9   0.00   0.75312   3 ;     H1-    C1-    C4-    O1
   849   850   853   860   9   0.00   2.13384   1 ;     H1-    C1-    C4-    O1
   850   852   864   851   9   0.00   0.00000   0 ;     C1-    C3-    O3-    C2
   850   852   864   851   9   0.00   0.66944   2 ;     C1-    C3-    O3-    C2
   850   852   864   851   9   0.00   1.00416   3 ;     C1-    C3-    O3-    C2
   850   852   865   866   9   0.00   0.65084   3 ;     C1-    C3-    C6-    H9
   850   852   865   867   9   0.00   0.65084   3 ;     C1-    C3-    C6-   H10
   850   852   865   868   9   0.00   0.87864   3 ;     C1-    C3-    C6-    O4
   850   853   854   851   9   0.00   0.46024   1 ;     C1-    C4-    C5-    C2
   850   853   854   851   9   0.00   0.54392   3 ;     C1-    C4-    C5-    C2
   850   853   854   851   9   180.00   1.21336   2 ;     C1-    C4-    C5-    C2
   850   853   854   858   9   0.00   0.65084   3 ;     C1-    C4-    C5-    H5
   850   853   854   862   9   0.00   0.87864   3 ;     C1-    C4-    C5-    O2
   850   853   860   861   9   0.00   0.00000   0 ;     C1-    C4-    O1-    H7
   851   854   853   857   9   0.00   0.65084   3 ;     C2-    C5-    C4-    H4
   851   854   853   860   9   0.00   0.87864   3 ;     C2-    C5-    C4-    O1
   851   854   862   863   9   0.00   0.00000   0 ;     C2-    C5-    O2-    H8
   851   864   852   859   9   0.00   1.41001   3 ;     C2-    O3-    C3-    H6
   851   864   852   865   9   0.00   0.00000   0 ;     C2-    O3-    C3-    C6
   851   864   852   865   9   0.00   0.66944   2 ;     C2-    O3-    C3-    C6
   851   864   852   865   9   0.00   1.00416   3 ;     C2-    O3-    C3-    C6
   851   870   871   873   9   0.00   0.00000   0 ;     C2-    O5-    C7-    C9
   851   870   871   873   9   0.00   0.66944   2 ;     C2-    O5-    C7-    C9
   851   870   871   873   9   0.00   1.00416   3 ;     C2-    O5-    C7-    C9
   851   870   871   874   9   0.00   0.00000   0 ;     C2-    O5-    C7-   C10
   851   870   871   874   9   0.00   0.66944   2 ;     C2-    O5-    C7-   C10
   851   870   871   874   9   0.00   1.00416   3 ;     C2-    O5-    C7-   C10
   851   870   871   880   9   0.00   1.41001   3 ;     C2-    O5-    C7-   H16
   852   850   853   854   9   0.00   0.46024   1 ;     C3-    C1-    C4-    C5
   852   850   853   854   9   0.00   0.54392   3 ;     C3-    C1-    C4-    C5
   852   850   853   854   9   180.00   1.21336   2 ;     C3-    C1-    C4-    C5
   852   850   853   857   9   0.00   0.65084   3 ;     C3-    C1-    C4-    H4
   852   850   853   860   9   0.00   0.87864   3 ;     C3-    C1-    C4-    O1
   852   864   851   854   9   0.00   0.00000   0 ;     C3-    O3-    C2-    C5
   852   864   851   854   9   0.00   0.66944   2 ;     C3-    O3-    C2-    C5
   852   864   851   854   9   0.00   1.00416   3 ;     C3-    O3-    C2-    C5
   852   864   851   855   9   0.00   1.60387   3 ;     C3-    O3-    C2-    H2
   852   864   851   870   9   0.00   5.18816   2 ;     C3-    O3-    C2-    O5
   852   864   851   870   9   180.00   0.00000   3 ;     C3-    O3-    C2-    O5
   852   864   851   870   9   180.00   4.05848   1 ;     C3-    O3-    C2-    O5
   852   865   868   869   9   0.00   0.00000   0 ;     C3-    C6-    O4-   H11
   853   850   852   859   9   0.00   0.65084   3 ;     C4-    C1-    C3-    H6
   853   850   852   864   9   0.00   0.65084   3 ;     C4-    C1-    C3-    O3
   853   850   852   865   9   0.00   0.46024   1 ;     C4-    C1-    C3-    C6
   853   850   852   865   9   0.00   0.54392   3 ;     C4-    C1-    C3-    C6
   853   850   852   865   9   180.00   1.21336   2 ;     C4-    C1-    C3-    C6
   853   854   851   855   9   0.00   0.65084   3 ;     C4-    C5-    C2-    H2
   853   854   851   864   9   0.00   0.65084   3 ;     C4-    C5-    C2-    O3
   853   854   851   870   9   0.00   0.65084   3 ;     C4-    C5-    C2-    O5
   853   854   862   863   9   0.00   0.00000   0 ;     C4-    C5-    O2-    H8
   854   851   870   871   9   0.00   0.00000   0 ;     C5-    C2-    O5-    C7
   854   851   870   871   9   0.00   0.66944   2 ;     C5-    C2-    O5-    C7
   854   851   870   871   9   0.00   1.00416   3 ;     C5-    C2-    O5-    C7
   854   853   850   856   9   0.00   0.33472   3 ;     C5-    C4-    C1-    H3
   854   853   860   861   9   0.00   0.00000   0 ;     C5-    C4-    O1-    H7
   855   851   854   858   9   0.00   0.65084   3 ;     H2-    C2-    C5-    H5
   855   851   854   862   9   0.00   0.65084   3 ;     H2-    C2-    C5-    O2
   855   851   870   871   9   0.00   1.60387   3 ;     H2-    C2-    O5-    C7
   856   850   852   859   9   0.00   0.65084   3 ;     H3-    C1-    C3-    H6
   856   850   852   864   9   0.00   0.00000   0 ;     H3-    C1-    C3-    O3
   856   850   852   864   9   0.00   1.04600   1 ;     H3-    C1-    C3-    O3
   856   850   852   865   9   0.00   0.33472   3 ;     H3-    C1-    C3-    C6
   856   850   853   857   9   0.00   0.65084   3 ;     H3-    C1-    C4-    H4
   856   850   853   860   9   0.00   0.75312   3 ;     H3-    C1-    C4-    O1
   856   850   853   860   9   0.00   2.13384   1 ;     H3-    C1-    C4-    O1
   857   853   854   858   9   0.00   0.65084   3 ;     H4-    C4-    C5-    H5
   857   853   854   862   9   0.00   0.00000   0 ;     H4-    C4-    C5-    O2
   857   853   854   862   9   0.00   1.04600   1 ;     H4-    C4-    C5-    O2
   857   853   860   861   9   0.00   0.47279   3 ;     H4-    C4-    O1-    H7
   858   854   851   864   9   0.00   0.00000   0 ;     H5-    C5-    C2-    O3
   858   854   851   864   9   0.00   1.04600   1 ;     H5-    C5-    C2-    O3
   858   854   851   870   9   0.00   0.00000   0 ;     H5-    C5-    C2-    O5
   858   854   851   870   9   0.00   1.04600   1 ;     H5-    C5-    C2-    O5
   858   854   853   860   9   0.00   0.00000   0 ;     H5-    C5-    C4-    O1
   858   854   853   860   9   0.00   1.04600   1 ;     H5-    C5-    C4-    O1
   858   854   862   863   9   0.00   0.47279   3 ;     H5-    C5-    O2-    H8
   859   852   865   866   9   0.00   0.65084   3 ;     H6-    C3-    C6-    H9
   859   852   865   867   9   0.00   0.65084   3 ;     H6-    C3-    C6-   H10
   859   852   865   868   9   0.00   0.00000   0 ;     H6-    C3-    C6-    O4
   859   852   865   868   9   0.00   1.04600   1 ;     H6-    C3-    C6-    O4
   860   853   854   862   9   0.00   3.76560   3 ;     O1-    C4-    C5-    O2
   860   853   854   862   9   0.00   4.72792   2 ;     O1-    C4-    C5-    O2
   862   854   851   864   9   0.00   0.00000   0 ;     O2-    C5-    C2-    O3
   862   854   851   864   9   0.00   4.22584   3 ;     O2-    C5-    C2-    O3
   862   854   851   864   9   180.00   0.08368   1 ;     O2-    C5-    C2-    O3
   862   854   851   870   9   0.00   0.00000   0 ;     O2-    C5-    C2-    O5
   862   854   851   870   9   0.00   4.22584   3 ;     O2-    C5-    C2-    O5
   862   854   851   870   9   180.00   0.08368   1 ;     O2-    C5-    C2-    O5
   864   851   870   871   9   0.00   5.18816   2 ;     O3-    C2-    O5-    C7
   864   851   870   871   9   180.00   0.00000   3 ;     O3-    C2-    O5-    C7
   864   851   870   871   9   180.00   4.05848   1 ;     O3-    C2-    O5-    C7
   864   852   865   866   9   0.00   0.00000   0 ;     O3-    C3-    C6-    H9
   864   852   865   866   9   0.00   1.04600   1 ;     O3-    C3-    C6-    H9
   864   852   865   867   9   0.00   0.00000   0 ;     O3-    C3-    C6-   H10
   864   852   865   867   9   0.00   1.04600   1 ;     O3-    C3-    C6-   H10
   864   852   865   868   9   0.00   0.00000   0 ;     O3-    C3-    C6-    O4
   864   852   865   868   9   0.00   4.22584   3 ;     O3-    C3-    C6-    O4
   864   852   865   868   9   180.00   0.08368   1 ;     O3-    C3-    C6-    O4
   866   865   868   869   9   0.00   0.47279   3 ;     H9-    C6-    O4-   H11
   867   865   868   869   9   0.00   0.47279   3 ;    H10-    C6-    O4-   H11
   870   871   873   872   9   0.00   0.65084   3 ;     O5-    C7-    C9-    C8
   870   871   873   876   9   0.00   0.00000   0 ;     O5-    C7-    C9-   H12
   870   871   873   876   9   0.00   1.04600   1 ;     O5-    C7-    C9-   H12
   870   871   873   889   9   0.00   0.00000   0 ;     O5-    C7-    C9-    O9
   870   871   873   889   9   0.00   4.22584   3 ;     O5-    C7-    C9-    O9
   870   871   873   889   9   180.00   0.08368   1 ;     O5-    C7-    C9-    O9
   870   871   874   878   9   0.00   0.00000   0 ;     O5-    C7-   C10-   H14
   870   871   874   878   9   0.00   1.04600   1 ;     O5-    C7-   C10-   H14
   870   871   874   881   9   0.00   0.00000   0 ;     O5-    C7-   C10-    O6
   870   871   874   881   9   180.00   0.00000   2 ;     O5-    C7-   C10-    O6
   870   871   874   881   9   180.00   0.71128   1 ;     O5-    C7-   C10-    O6
   870   871   874   882   9   0.00   0.65084   3 ;     O5-    C7-   C10-   C12
   871   873   872   875   9   0.00   0.46024   1 ;     C7-    C9-    C8-   C11
   871   873   872   875   9   0.00   0.54392   3 ;     C7-    C9-    C8-   C11
   871   873   872   875   9   180.00   1.21336   2 ;     C7-    C9-    C8-   C11
   871   873   872   877   9   0.00   0.65084   3 ;     C7-    C9-    C8-   H13
   871   873   872   887   9   0.00   0.87864   3 ;     C7-    C9-    C8-    O8
   871   873   889   890   9   0.00   0.00000   0 ;     C7-    C9-    O9-   H21
   871   874   881   875   9   0.00   0.00000   0 ;     C7-   C10-    O6-   C11
   871   874   881   875   9   0.00   0.66944   2 ;     C7-   C10-    O6-   C11
   871   874   881   875   9   0.00   1.00416   3 ;     C7-   C10-    O6-   C11
   871   874   882   883   9   0.00   0.65084   3 ;     C7-   C10-   C12-   H17
   871   874   882   884   9   0.00   0.65084   3 ;     C7-   C10-   C12-   H18
   871   874   882   885   9   0.00   0.87864   3 ;     C7-   C10-   C12-    O7
   872   873   871   874   9   0.00   0.46024   1 ;     C8-    C9-    C7-   C10
   872   873   871   874   9   0.00   0.54392   3 ;     C8-    C9-    C7-   C10
   872   873   871   874   9   180.00   1.21336   2 ;     C8-    C9-    C7-   C10
   872   873   871   880   9   0.00   0.65084   3 ;     C8-    C9-    C7-   H16
   872   873   889   890   9   0.00   0.00000   0 ;     C8-    C9-    O9-   H21
   872   875   881   874   9   0.00   0.00000   0 ;     C8-   C11-    O6-   C10
   872   875   881   874   9   0.00   0.66944   2 ;     C8-   C11-    O6-   C10
   872   875   881   874   9   0.00   1.00416   3 ;     C8-   C11-    O6-   C10
   872   875   891   892   9   0.00   0.00000   0 ;     C8-   C11-   O10-   C13
   872   875   891   892   9   0.00   0.66944   2 ;     C8-   C11-   O10-   C13
   872   875   891   892   9   0.00   1.00416   3 ;     C8-   C11-   O10-   C13
   873   871   874   878   9   0.00   0.65084   3 ;     C9-    C7-   C10-   H14
   873   871   874   881   9   0.00   0.65084   3 ;     C9-    C7-   C10-    O6
   873   871   874   882   9   0.00   0.46024   1 ;     C9-    C7-   C10-   C12
   873   871   874   882   9   0.00   0.54392   3 ;     C9-    C7-   C10-   C12
   873   871   874   882   9   180.00   1.21336   2 ;     C9-    C7-   C10-   C12
   873   872   875   879   9   0.00   0.65084   3 ;     C9-    C8-   C11-   H15
   873   872   875   881   9   0.00   0.65084   3 ;     C9-    C8-   C11-    O6
   873   872   875   891   9   0.00   0.65084   3 ;     C9-    C8-   C11-   O10
   873   872   887   888   9   0.00   0.00000   0 ;     C9-    C8-    O8-   H20
   874   871   873   876   9   0.00   0.65084   3 ;    C10-    C7-    C9-   H12
   874   871   873   889   9   0.00   0.87864   3 ;    C10-    C7-    C9-    O9
   874   881   875   879   9   0.00   1.60387   3 ;    C10-    O6-   C11-   H15
   874   881   875   891   9   0.00   5.18816   2 ;    C10-    O6-   C11-   O10
   874   881   875   891   9   180.00   0.00000   3 ;    C10-    O6-   C11-   O10
   874   881   875   891   9   180.00   4.05848   1 ;    C10-    O6-   C11-   O10
   874   882   885   886   9   0.00   0.00000   0 ;    C10-   C12-    O7-   H19
   875   872   873   876   9   0.00   0.65084   3 ;    C11-    C8-    C9-   H12
   875   872   873   889   9   0.00   0.87864   3 ;    C11-    C8-    C9-    O9
   875   872   887   888   9   0.00   0.00000   0 ;    C11-    C8-    O8-   H20
   875   881   874   878   9   0.00   1.41001   3 ;    C11-    O6-   C10-   H14
   875   881   874   882   9   0.00   0.00000   0 ;    C11-    O6-   C10-   C12
   875   881   874   882   9   0.00   0.66944   2 ;    C11-    O6-   C10-   C12
   875   881   874   882   9   0.00   1.00416   3 ;    C11-    O6-   C10-   C12
   875   891   892   894   9   0.00   0.00000   0 ;    C11-   O10-   C13-   C15
   875   891   892   894   9   0.00   0.66944   2 ;    C11-   O10-   C13-   C15
   875   891   892   894   9   0.00   1.00416   3 ;    C11-   O10-   C13-   C15
   875   891   892   895   9   0.00   0.00000   0 ;    C11-   O10-   C13-   C16
   875   891   892   895   9   0.00   0.66944   2 ;    C11-   O10-   C13-   C16
   875   891   892   895   9   0.00   1.00416   3 ;    C11-   O10-   C13-   C16
   875   891   892   898   9   0.00   1.41001   3 ;    C11-   O10-   C13-   H23
   876   873   871   880   9   0.00   0.65084   3 ;    H12-    C9-    C7-   H16
   876   873   872   877   9   0.00   0.65084   3 ;    H12-    C9-    C8-   H13
   876   873   872   887   9   0.00   0.00000   0 ;    H12-    C9-    C8-    O8
   876   873   872   887   9   0.00   1.04600   1 ;    H12-    C9-    C8-    O8
   876   873   889   890   9   0.00   0.47279   3 ;    H12-    C9-    O9-   H21
   877   872   873   889   9   0.00   0.00000   0 ;    H13-    C8-    C9-    O9
   877   872   873   889   9   0.00   1.04600   1 ;    H13-    C8-    C9-    O9
   877   872   875   879   9   0.00   0.65084   3 ;    H13-    C8-   C11-   H15
   877   872   875   881   9   0.00   0.00000   0 ;    H13-    C8-   C11-    O6
   877   872   875   881   9   0.00   1.04600   1 ;    H13-    C8-   C11-    O6
   877   872   875   891   9   0.00   0.00000   0 ;    H13-    C8-   C11-   O10
   877   872   875   891   9   0.00   1.04600   1 ;    H13-    C8-   C11-   O10
   877   872   887   888   9   0.00   0.47279   3 ;    H13-    C8-    O8-   H20
   878   874   871   880   9   0.00   0.65084   3 ;    H14-   C10-    C7-   H16
   878   874   882   883   9   0.00   0.65084   3 ;    H14-   C10-   C12-   H17
   878   874   882   884   9   0.00   0.65084   3 ;    H14-   C10-   C12-   H18
   878   874   882   885   9   0.00   0.00000   0 ;    H14-   C10-   C12-    O7
   878   874   882   885   9   0.00   1.04600   1 ;    H14-   C10-   C12-    O7
   879   875   872   887   9   0.00   0.65084   3 ;    H15-   C11-    C8-    O8
   879   875   891   892   9   0.00   1.60387   3 ;    H15-   C11-   O10-   C13
   880   871   873   889   9   0.00   0.00000   0 ;    H16-    C7-    C9-    O9
   880   871   873   889   9   0.00   1.04600   1 ;    H16-    C7-    C9-    O9
   880   871   874   881   9   0.00   0.00000   0 ;    H16-    C7-   C10-    O6
   880   871   874   881   9   0.00   1.04600   1 ;    H16-    C7-   C10-    O6
   880   871   874   882   9   0.00   0.65084   3 ;    H16-    C7-   C10-   C12
   881   874   882   883   9   0.00   0.00000   0 ;     O6-   C10-   C12-   H17
   881   874   882   883   9   0.00   1.04600   1 ;     O6-   C10-   C12-   H17
   881   874   882   884   9   0.00   0.00000   0 ;     O6-   C10-   C12-   H18
   881   874   882   884   9   0.00   1.04600   1 ;     O6-   C10-   C12-   H18
   881   874   882   885   9   0.00   0.00000   0 ;     O6-   C10-   C12-    O7
   881   874   882   885   9   0.00   4.22584   3 ;     O6-   C10-   C12-    O7
   881   874   882   885   9   180.00   0.08368   1 ;     O6-   C10-   C12-    O7
   881   875   872   887   9   0.00   0.00000   0 ;     O6-   C11-    C8-    O8
   881   875   872   887   9   0.00   4.22584   3 ;     O6-   C11-    C8-    O8
   881   875   872   887   9   180.00   0.08368   1 ;     O6-   C11-    C8-    O8
   881   875   891   892   9   0.00   5.18816   2 ;     O6-   C11-   O10-   C13
   881   875   891   892   9   180.00   0.00000   3 ;     O6-   C11-   O10-   C13
   881   875   891   892   9   180.00   4.05848   1 ;     O6-   C11-   O10-   C13
   883   882   885   886   9   0.00   0.47279   3 ;    H17-   C12-    O7-   H19
   884   882   885   886   9   0.00   0.47279   3 ;    H18-   C12-    O7-   H19
   887   872   873   889   9   0.00   3.76560   3 ;     O8-    C8-    C9-    O9
   887   872   873   889   9   0.00   4.72792   2 ;     O8-    C8-    C9-    O9
   887   872   875   891   9   0.00   0.00000   0 ;     O8-    C8-   C11-   O10
   887   872   875   891   9   0.00   4.22584   3 ;     O8-    C8-   C11-   O10
   887   872   875   891   9   180.00   0.08368   1 ;     O8-    C8-   C11-   O10
   891   892   894   901   9   0.00   0.00000   0 ;    O10-   C13-   C15-   H26
   891   892   894   901   9   0.00   1.04600   1 ;    O10-   C13-   C15-   H26
   891   892   894   906   9   0.00   0.00000   0 ;    O10-   C13-   C15-   O13
   891   892   894   906   9   180.00   0.00000   2 ;    O10-   C13-   C15-   O13
   891   892   894   906   9   180.00   0.71128   1 ;    O10-   C13-   C15-   O13
   891   892   894   907   9   0.00   0.65084   3 ;    O10-   C13-   C15-   C18
   891   892   895   896   9   0.00   0.65084   3 ;    O10-   C13-   C16-   C17
   891   892   895   899   9   0.00   0.00000   0 ;    O10-   C13-   C16-   H24
   891   892   895   899   9   0.00   1.04600   1 ;    O10-   C13-   C16-   H24
   891   892   895   902   9   0.00   0.00000   0 ;    O10-   C13-   C16-   O11
   891   892   895   902   9   0.00   4.22584   3 ;    O10-   C13-   C16-   O11
   891   892   895   902   9   180.00   0.08368   1 ;    O10-   C13-   C16-   O11
   892   894   906   893   9   0.00   0.00000   0 ;    C13-   C15-   O13-   C14
   892   894   906   893   9   0.00   0.66944   2 ;    C13-   C15-   O13-   C14
   892   894   906   893   9   0.00   1.00416   3 ;    C13-   C15-   O13-   C14
   892   894   907   908   9   0.00   0.65084   3 ;    C13-   C15-   C18-   H29
   892   894   907   909   9   0.00   0.65084   3 ;    C13-   C15-   C18-   H30
   892   894   907   910   9   0.00   0.87864   3 ;    C13-   C15-   C18-   O14
   892   895   896   893   9   0.00   0.46024   1 ;    C13-   C16-   C17-   C14
   892   895   896   893   9   0.00   0.54392   3 ;    C13-   C16-   C17-   C14
   892   895   896   893   9   180.00   1.21336   2 ;    C13-   C16-   C17-   C14
   892   895   896   900   9   0.00   0.65084   3 ;    C13-   C16-   C17-   H25
   892   895   896   904   9   0.00   0.87864   3 ;    C13-   C16-   C17-   O12
   892   895   902   903   9   0.00   0.00000   0 ;    C13-   C16-   O11-   H27
   893   896   895   899   9   0.00   0.65084   3 ;    C14-   C17-   C16-   H24
   893   896   895   902   9   0.00   0.87864   3 ;    C14-   C17-   C16-   O11
   893   896   904   905   9   0.00   0.00000   0 ;    C14-   C17-   O12-   H28
   893   906   894   901   9   0.00   1.41001   3 ;    C14-   O13-   C15-   H26
   893   906   894   907   9   0.00   0.00000   0 ;    C14-   O13-   C15-   C18
   893   906   894   907   9   0.00   0.66944   2 ;    C14-   O13-   C15-   C18
   893   906   894   907   9   0.00   1.00416   3 ;    C14-   O13-   C15-   C18
   893   912   913   915   9   0.00   0.00000   0 ;    C14-   O15-   C19-   C21
   893   912   913   915   9   0.00   0.66944   2 ;    C14-   O15-   C19-   C21
   893   912   913   915   9   0.00   1.00416   3 ;    C14-   O15-   C19-   C21
   893   912   913   916   9   0.00   0.00000   0 ;    C14-   O15-   C19-   C22
   893   912   913   916   9   0.00   0.66944   2 ;    C14-   O15-   C19-   C22
   893   912   913   916   9   0.00   1.00416   3 ;    C14-   O15-   C19-   C22
   893   912   913   922   9   0.00   1.41001   3 ;    C14-   O15-   C19-   H36
   894   892   895   896   9   0.00   0.46024   1 ;    C15-   C13-   C16-   C17
   894   892   895   896   9   0.00   0.54392   3 ;    C15-   C13-   C16-   C17
   894   892   895   896   9   180.00   1.21336   2 ;    C15-   C13-   C16-   C17
   894   892   895   899   9   0.00   0.65084   3 ;    C15-   C13-   C16-   H24
   894   892   895   902   9   0.00   0.87864   3 ;    C15-   C13-   C16-   O11
   894   906   893   896   9   0.00   0.00000   0 ;    C15-   O13-   C14-   C17
   894   906   893   896   9   0.00   0.66944   2 ;    C15-   O13-   C14-   C17
   894   906   893   896   9   0.00   1.00416   3 ;    C15-   O13-   C14-   C17
   894   906   893   897   9   0.00   1.60387   3 ;    C15-   O13-   C14-   H22
   894   906   893   912   9   0.00   5.18816   2 ;    C15-   O13-   C14-   O15
   894   906   893   912   9   180.00   0.00000   3 ;    C15-   O13-   C14-   O15
   894   906   893   912   9   180.00   4.05848   1 ;    C15-   O13-   C14-   O15
   894   907   910   911   9   0.00   0.00000   0 ;    C15-   C18-   O14-   H31
   895   892   894   901   9   0.00   0.65084   3 ;    C16-   C13-   C15-   H26
   895   892   894   906   9   0.00   0.65084   3 ;    C16-   C13-   C15-   O13
   895   892   894   907   9   0.00   0.46024   1 ;    C16-   C13-   C15-   C18
   895   892   894   907   9   0.00   0.54392   3 ;    C16-   C13-   C15-   C18
   895   892   894   907   9   180.00   1.21336   2 ;    C16-   C13-   C15-   C18
   895   896   893   897   9   0.00   0.65084   3 ;    C16-   C17-   C14-   H22
   895   896   893   906   9   0.00   0.65084   3 ;    C16-   C17-   C14-   O13
   895   896   893   912   9   0.00   0.65084   3 ;    C16-   C17-   C14-   O15
   895   896   904   905   9   0.00   0.00000   0 ;    C16-   C17-   O12-   H28
   896   893   912   913   9   0.00   0.00000   0 ;    C17-   C14-   O15-   C19
   896   893   912   913   9   0.00   0.66944   2 ;    C17-   C14-   O15-   C19
   896   893   912   913   9   0.00   1.00416   3 ;    C17-   C14-   O15-   C19
   896   895   892   898   9   0.00   0.65084   3 ;    C17-   C16-   C13-   H23
   896   895   902   903   9   0.00   0.00000   0 ;    C17-   C16-   O11-   H27
   897   893   896   900   9   0.00   0.65084   3 ;    H22-   C14-   C17-   H25
   897   893   896   904   9   0.00   0.65084   3 ;    H22-   C14-   C17-   O12
   897   893   912   913   9   0.00   1.60387   3 ;    H22-   C14-   O15-   C19
   898   892   894   901   9   0.00   0.65084   3 ;    H23-   C13-   C15-   H26
   898   892   894   906   9   0.00   0.00000   0 ;    H23-   C13-   C15-   O13
   898   892   894   906   9   0.00   1.04600   1 ;    H23-   C13-   C15-   O13
   898   892   894   907   9   0.00   0.65084   3 ;    H23-   C13-   C15-   C18
   898   892   895   899   9   0.00   0.65084   3 ;    H23-   C13-   C16-   H24
   898   892   895   902   9   0.00   0.00000   0 ;    H23-   C13-   C16-   O11
   898   892   895   902   9   0.00   1.04600   1 ;    H23-   C13-   C16-   O11
   899   895   896   900   9   0.00   0.65084   3 ;    H24-   C16-   C17-   H25
   899   895   896   904   9   0.00   0.00000   0 ;    H24-   C16-   C17-   O12
   899   895   896   904   9   0.00   1.04600   1 ;    H24-   C16-   C17-   O12
   899   895   902   903   9   0.00   0.47279   3 ;    H24-   C16-   O11-   H27
   900   896   893   906   9   0.00   0.00000   0 ;    H25-   C17-   C14-   O13
   900   896   893   906   9   0.00   1.04600   1 ;    H25-   C17-   C14-   O13
   900   896   893   912   9   0.00   0.00000   0 ;    H25-   C17-   C14-   O15
   900   896   893   912   9   0.00   1.04600   1 ;    H25-   C17-   C14-   O15
   900   896   895   902   9   0.00   0.00000   0 ;    H25-   C17-   C16-   O11
   900   896   895   902   9   0.00   1.04600   1 ;    H25-   C17-   C16-   O11
   900   896   904   905   9   0.00   0.47279   3 ;    H25-   C17-   O12-   H28
   901   894   907   908   9   0.00   0.65084   3 ;    H26-   C15-   C18-   H29
   901   894   907   909   9   0.00   0.65084   3 ;    H26-   C15-   C18-   H30
   901   894   907   910   9   0.00   0.00000   0 ;    H26-   C15-   C18-   O14
   901   894   907   910   9   0.00   1.04600   1 ;    H26-   C15-   C18-   O14
   902   895   896   904   9   0.00   3.76560   3 ;    O11-   C16-   C17-   O12
   902   895   896   904   9   0.00   4.72792   2 ;    O11-   C16-   C17-   O12
   904   896   893   906   9   0.00   0.00000   0 ;    O12-   C17-   C14-   O13
   904   896   893   906   9   0.00   4.22584   3 ;    O12-   C17-   C14-   O13
   904   896   893   906   9   180.00   0.08368   1 ;    O12-   C17-   C14-   O13
   904   896   893   912   9   0.00   0.00000   0 ;    O12-   C17-   C14-   O15
   904   896   893   912   9   0.00   4.22584   3 ;    O12-   C17-   C14-   O15
   904   896   893   912   9   180.00   0.08368   1 ;    O12-   C17-   C14-   O15
   906   893   912   913   9   0.00   5.18816   2 ;    O13-   C14-   O15-   C19
   906   893   912   913   9   180.00   0.00000   3 ;    O13-   C14-   O15-   C19
   906   893   912   913   9   180.00   4.05848   1 ;    O13-   C14-   O15-   C19
   906   894   907   908   9   0.00   0.00000   0 ;    O13-   C15-   C18-   H29
   906   894   907   908   9   0.00   1.04600   1 ;    O13-   C15-   C18-   H29
   906   894   907   909   9   0.00   0.00000   0 ;    O13-   C15-   C18-   H30
   906   894   907   909   9   0.00   1.04600   1 ;    O13-   C15-   C18-   H30
   906   894   907   910   9   0.00   0.00000   0 ;    O13-   C15-   C18-   O14
   906   894   907   910   9   0.00   4.22584   3 ;    O13-   C15-   C18-   O14
   906   894   907   910   9   180.00   0.08368   1 ;    O13-   C15-   C18-   O14
   908   907   910   911   9   0.00   0.47279   3 ;    H29-   C18-   O14-   H31
   909   907   910   911   9   0.00   0.47279   3 ;    H30-   C18-   O14-   H31
   912   913   915   914   9   0.00   0.65084   3 ;    O15-   C19-   C21-   C20
   912   913   915   918   9   0.00   0.00000   0 ;    O15-   C19-   C21-   H32
   912   913   915   918   9   0.00   1.04600   1 ;    O15-   C19-   C21-   H32
   912   913   915   931   9   0.00   0.00000   0 ;    O15-   C19-   C21-   O19
   912   913   915   931   9   0.00   4.22584   3 ;    O15-   C19-   C21-   O19
   912   913   915   931   9   180.00   0.08368   1 ;    O15-   C19-   C21-   O19
   912   913   916   920   9   0.00   0.00000   0 ;    O15-   C19-   C22-   H34
   912   913   916   920   9   0.00   1.04600   1 ;    O15-   C19-   C22-   H34
   912   913   916   923   9   0.00   0.00000   0 ;    O15-   C19-   C22-   O16
   912   913   916   923   9   180.00   0.00000   2 ;    O15-   C19-   C22-   O16
   912   913   916   923   9   180.00   0.71128   1 ;    O15-   C19-   C22-   O16
   912   913   916   924   9   0.00   0.65084   3 ;    O15-   C19-   C22-   C24
   913   915   914   917   9   0.00   0.46024   1 ;    C19-   C21-   C20-   C23
   913   915   914   917   9   0.00   0.54392   3 ;    C19-   C21-   C20-   C23
   913   915   914   917   9   180.00   1.21336   2 ;    C19-   C21-   C20-   C23
   913   915   914   919   9   0.00   0.65084   3 ;    C19-   C21-   C20-   H33
   913   915   914   929   9   0.00   0.87864   3 ;    C19-   C21-   C20-   O18
   913   915   931   932   9   0.00   0.00000   0 ;    C19-   C21-   O19-   H41
   913   916   923   917   9   0.00   0.00000   0 ;    C19-   C22-   O16-   C23
   913   916   923   917   9   0.00   0.66944   2 ;    C19-   C22-   O16-   C23
   913   916   923   917   9   0.00   1.00416   3 ;    C19-   C22-   O16-   C23
   913   916   924   925   9   0.00   0.65084   3 ;    C19-   C22-   C24-   H37
   913   916   924   926   9   0.00   0.65084   3 ;    C19-   C22-   C24-   H38
   913   916   924   927   9   0.00   0.87864   3 ;    C19-   C22-   C24-   O17
   914   915   913   916   9   0.00   0.46024   1 ;    C20-   C21-   C19-   C22
   914   915   913   916   9   0.00   0.54392   3 ;    C20-   C21-   C19-   C22
   914   915   913   916   9   180.00   1.21336   2 ;    C20-   C21-   C19-   C22
   914   915   913   922   9   0.00   0.65084   3 ;    C20-   C21-   C19-   H36
   914   915   931   932   9   0.00   0.00000   0 ;    C20-   C21-   O19-   H41
   914   917   923   916   9   0.00   0.00000   0 ;    C20-   C23-   O16-   C22
   914   917   923   916   9   0.00   0.66944   2 ;    C20-   C23-   O16-   C22
   914   917   923   916   9   0.00   1.00416   3 ;    C20-   C23-   O16-   C22
   914   917   933   934   9   0.00   0.00000   0 ;    C20-   C23-   O20-   C25
   914   917   933   934   9   0.00   0.66944   2 ;    C20-   C23-   O20-   C25
   914   917   933   934   9   0.00   1.00416   3 ;    C20-   C23-   O20-   C25
   915   913   916   920   9   0.00   0.65084   3 ;    C21-   C19-   C22-   H34
   915   913   916   923   9   0.00   0.65084   3 ;    C21-   C19-   C22-   O16
   915   913   916   924   9   0.00   0.46024   1 ;    C21-   C19-   C22-   C24
   915   913   916   924   9   0.00   0.54392   3 ;    C21-   C19-   C22-   C24
   915   913   916   924   9   180.00   1.21336   2 ;    C21-   C19-   C22-   C24
   915   914   917   921   9   0.00   0.65084   3 ;    C21-   C20-   C23-   H35
   915   914   917   923   9   0.00   0.65084   3 ;    C21-   C20-   C23-   O16
   915   914   917   933   9   0.00   0.65084   3 ;    C21-   C20-   C23-   O20
   915   914   929   930   9   0.00   0.00000   0 ;    C21-   C20-   O18-   H40
   916   913   915   918   9   0.00   0.65084   3 ;    C22-   C19-   C21-   H32
   916   913   915   931   9   0.00   0.87864   3 ;    C22-   C19-   C21-   O19
   916   923   917   921   9   0.00   1.60387   3 ;    C22-   O16-   C23-   H35
   916   923   917   933   9   0.00   5.18816   2 ;    C22-   O16-   C23-   O20
   916   923   917   933   9   180.00   0.00000   3 ;    C22-   O16-   C23-   O20
   916   923   917   933   9   180.00   4.05848   1 ;    C22-   O16-   C23-   O20
   916   924   927   928   9   0.00   0.00000   0 ;    C22-   C24-   O17-   H39
   917   914   915   918   9   0.00   0.65084   3 ;    C23-   C20-   C21-   H32
   917   914   915   931   9   0.00   0.87864   3 ;    C23-   C20-   C21-   O19
   917   914   929   930   9   0.00   0.00000   0 ;    C23-   C20-   O18-   H40
   917   923   916   920   9   0.00   1.41001   3 ;    C23-   O16-   C22-   H34
   917   923   916   924   9   0.00   0.00000   0 ;    C23-   O16-   C22-   C24
   917   923   916   924   9   0.00   0.66944   2 ;    C23-   O16-   C22-   C24
   917   923   916   924   9   0.00   1.00416   3 ;    C23-   O16-   C22-   C24
   917   933   934   936   9   0.00   0.00000   0 ;    C23-   O20-   C25-   C27
   917   933   934   936   9   0.00   0.66944   2 ;    C23-   O20-   C25-   C27
   917   933   934   936   9   0.00   1.00416   3 ;    C23-   O20-   C25-   C27
   917   933   934   937   9   0.00   0.00000   0 ;    C23-   O20-   C25-   C28
   917   933   934   937   9   0.00   0.66944   2 ;    C23-   O20-   C25-   C28
   917   933   934   937   9   0.00   1.00416   3 ;    C23-   O20-   C25-   C28
   917   933   934   940   9   0.00   1.41001   3 ;    C23-   O20-   C25-   H43
   918   915   913   922   9   0.00   0.65084   3 ;    H32-   C21-   C19-   H36
   918   915   914   919   9   0.00   0.65084   3 ;    H32-   C21-   C20-   H33
   918   915   914   929   9   0.00   0.00000   0 ;    H32-   C21-   C20-   O18
   918   915   914   929   9   0.00   1.04600   1 ;    H32-   C21-   C20-   O18
   918   915   931   932   9   0.00   0.47279   3 ;    H32-   C21-   O19-   H41
   919   914   915   931   9   0.00   0.00000   0 ;    H33-   C20-   C21-   O19
   919   914   915   931   9   0.00   1.04600   1 ;    H33-   C20-   C21-   O19
   919   914   917   921   9   0.00   0.65084   3 ;    H33-   C20-   C23-   H35
   919   914   917   923   9   0.00   0.00000   0 ;    H33-   C20-   C23-   O16
   919   914   917   923   9   0.00   1.04600   1 ;    H33-   C20-   C23-   O16
   919   914   917   933   9   0.00   0.00000   0 ;    H33-   C20-   C23-   O20
   919   914   917   933   9   0.00   1.04600   1 ;    H33-   C20-   C23-   O20
   919   914   929   930   9   0.00   0.47279   3 ;    H33-   C20-   O18-   H40
   920   916   913   922   9   0.00   0.65084   3 ;    H34-   C22-   C19-   H36
   920   916   924   925   9   0.00   0.65084   3 ;    H34-   C22-   C24-   H37
   920   916   924   926   9   0.00   0.65084   3 ;    H34-   C22-   C24-   H38
   920   916   924   927   9   0.00   0.00000   0 ;    H34-   C22-   C24-   O17
   920   916   924   927   9   0.00   1.04600   1 ;    H34-   C22-   C24-   O17
   921   917   914   929   9   0.00   0.65084   3 ;    H35-   C23-   C20-   O18
   921   917   933   934   9   0.00   1.60387   3 ;    H35-   C23-   O20-   C25
   922   913   915   931   9   0.00   0.00000   0 ;    H36-   C19-   C21-   O19
   922   913   915   931   9   0.00   1.04600   1 ;    H36-   C19-   C21-   O19
   922   913   916   923   9   0.00   0.00000   0 ;    H36-   C19-   C22-   O16
   922   913   916   923   9   0.00   1.04600   1 ;    H36-   C19-   C22-   O16
   922   913   916   924   9   0.00   0.65084   3 ;    H36-   C19-   C22-   C24
   923   916   924   925   9   0.00   0.00000   0 ;    O16-   C22-   C24-   H37
   923   916   924   925   9   0.00   1.04600   1 ;    O16-   C22-   C24-   H37
   923   916   924   926   9   0.00   0.00000   0 ;    O16-   C22-   C24-   H38
   923   916   924   926   9   0.00   1.04600   1 ;    O16-   C22-   C24-   H38
   923   916   924   927   9   0.00   0.00000   0 ;    O16-   C22-   C24-   O17
   923   916   924   927   9   0.00   4.22584   3 ;    O16-   C22-   C24-   O17
   923   916   924   927   9   180.00   0.08368   1 ;    O16-   C22-   C24-   O17
   923   917   914   929   9   0.00   0.00000   0 ;    O16-   C23-   C20-   O18
   923   917   914   929   9   0.00   4.22584   3 ;    O16-   C23-   C20-   O18
   923   917   914   929   9   180.00   0.08368   1 ;    O16-   C23-   C20-   O18
   923   917   933   934   9   0.00   5.18816   2 ;    O16-   C23-   O20-   C25
   923   917   933   934   9   180.00   0.00000   3 ;    O16-   C23-   O20-   C25
   923   917   933   934   9   180.00   4.05848   1 ;    O16-   C23-   O20-   C25
   925   924   927   928   9   0.00   0.47279   3 ;    H37-   C24-   O17-   H39
   926   924   927   928   9   0.00   0.47279   3 ;    H38-   C24-   O17-   H39
   929   914   915   931   9   0.00   3.76560   3 ;    O18-   C20-   C21-   O19
   929   914   915   931   9   0.00   4.72792   2 ;    O18-   C20-   C21-   O19
   929   914   917   933   9   0.00   0.00000   0 ;    O18-   C20-   C23-   O20
   929   914   917   933   9   0.00   4.22584   3 ;    O18-   C20-   C23-   O20
   929   914   917   933   9   180.00   0.08368   1 ;    O18-   C20-   C23-   O20
   933   934   936   943   9   0.00   0.00000   0 ;    O20-   C25-   C27-   H46
   933   934   936   943   9   0.00   1.04600   1 ;    O20-   C25-   C27-   H46
   933   934   936   948   9   0.00   0.00000   0 ;    O20-   C25-   C27-   O23
   933   934   936   948   9   180.00   0.00000   2 ;    O20-   C25-   C27-   O23
   933   934   936   948   9   180.00   0.71128   1 ;    O20-   C25-   C27-   O23
   933   934   936   949   9   0.00   0.65084   3 ;    O20-   C25-   C27-   C30
   933   934   937   938   9   0.00   0.65084   3 ;    O20-   C25-   C28-   C29
   933   934   937   941   9   0.00   0.00000   0 ;    O20-   C25-   C28-   H44
   933   934   937   941   9   0.00   1.04600   1 ;    O20-   C25-   C28-   H44
   933   934   937   944   9   0.00   0.00000   0 ;    O20-   C25-   C28-   O21
   933   934   937   944   9   0.00   4.22584   3 ;    O20-   C25-   C28-   O21
   933   934   937   944   9   180.00   0.08368   1 ;    O20-   C25-   C28-   O21
   934   936   948   935   9   0.00   0.00000   0 ;    C25-   C27-   O23-   C26
   934   936   948   935   9   0.00   0.66944   2 ;    C25-   C27-   O23-   C26
   934   936   948   935   9   0.00   1.00416   3 ;    C25-   C27-   O23-   C26
   934   936   949   950   9   0.00   0.65084   3 ;    C25-   C27-   C30-   H49
   934   936   949   951   9   0.00   0.65084   3 ;    C25-   C27-   C30-   H50
   934   936   949   952   9   0.00   0.87864   3 ;    C25-   C27-   C30-   O24
   934   937   938   935   9   0.00   0.46024   1 ;    C25-   C28-   C29-   C26
   934   937   938   935   9   0.00   0.54392   3 ;    C25-   C28-   C29-   C26
   934   937   938   935   9   180.00   1.21336   2 ;    C25-   C28-   C29-   C26
   934   937   938   942   9   0.00   0.65084   3 ;    C25-   C28-   C29-   H45
   934   937   938   946   9   0.00   0.87864   3 ;    C25-   C28-   C29-   O22
   934   937   944   945   9   0.00   0.00000   0 ;    C25-   C28-   O21-   H47
   935   938   937   941   9   0.00   0.65084   3 ;    C26-   C29-   C28-   H44
   935   938   937   944   9   0.00   0.87864   3 ;    C26-   C29-   C28-   O21
   935   938   946   947   9   0.00   0.00000   0 ;    C26-   C29-   O22-   H48
   935   948   936   943   9   0.00   1.41001   3 ;    C26-   O23-   C27-   H46
   935   948   936   949   9   0.00   0.00000   0 ;    C26-   O23-   C27-   C30
   935   948   936   949   9   0.00   0.66944   2 ;    C26-   O23-   C27-   C30
   935   948   936   949   9   0.00   1.00416   3 ;    C26-   O23-   C27-   C30
   935   954   955   957   9   0.00   0.00000   0 ;    C26-   O25-   C31-   C33
   935   954   955   957   9   0.00   0.66944   2 ;    C26-   O25-   C31-   C33
   935   954   955   957   9   0.00   1.00416   3 ;    C26-   O25-   C31-   C33
   935   954   955   958   9   0.00   0.00000   0 ;    C26-   O25-   C31-   C34
   935   954   955   958   9   0.00   0.66944   2 ;    C26-   O25-   C31-   C34
   935   954   955   958   9   0.00   1.00416   3 ;    C26-   O25-   C31-   C34
   935   954   955   964   9   0.00   1.41001   3 ;    C26-   O25-   C31-   H56
   936   934   937   938   9   0.00   0.46024   1 ;    C27-   C25-   C28-   C29
   936   934   937   938   9   0.00   0.54392   3 ;    C27-   C25-   C28-   C29
   936   934   937   938   9   180.00   1.21336   2 ;    C27-   C25-   C28-   C29
   936   934   937   941   9   0.00   0.65084   3 ;    C27-   C25-   C28-   H44
   936   934   937   944   9   0.00   0.87864   3 ;    C27-   C25-   C28-   O21
   936   948   935   938   9   0.00   0.00000   0 ;    C27-   O23-   C26-   C29
   936   948   935   938   9   0.00   0.66944   2 ;    C27-   O23-   C26-   C29
   936   948   935   938   9   0.00   1.00416   3 ;    C27-   O23-   C26-   C29
   936   948   935   939   9   0.00   1.60387   3 ;    C27-   O23-   C26-   H42
   936   948   935   954   9   0.00   5.18816   2 ;    C27-   O23-   C26-   O25
   936   948   935   954   9   180.00   0.00000   3 ;    C27-   O23-   C26-   O25
   936   948   935   954   9   180.00   4.05848   1 ;    C27-   O23-   C26-   O25
   936   949   952   953   9   0.00   0.00000   0 ;    C27-   C30-   O24-   H51
   937   934   936   943   9   0.00   0.65084   3 ;    C28-   C25-   C27-   H46
   937   934   936   948   9   0.00   0.65084   3 ;    C28-   C25-   C27-   O23
   937   934   936   949   9   0.00   0.46024   1 ;    C28-   C25-   C27-   C30
   937   934   936   949   9   0.00   0.54392   3 ;    C28-   C25-   C27-   C30
   937   934   936   949   9   180.00   1.21336   2 ;    C28-   C25-   C27-   C30
   937   938   935   939   9   0.00   0.65084   3 ;    C28-   C29-   C26-   H42
   937   938   935   948   9   0.00   0.65084   3 ;    C28-   C29-   C26-   O23
   937   938   935   954   9   0.00   0.65084   3 ;    C28-   C29-   C26-   O25
   937   938   946   947   9   0.00   0.00000   0 ;    C28-   C29-   O22-   H48
   938   935   954   955   9   0.00   0.00000   0 ;    C29-   C26-   O25-   C31
   938   935   954   955   9   0.00   0.66944   2 ;    C29-   C26-   O25-   C31
   938   935   954   955   9   0.00   1.00416   3 ;    C29-   C26-   O25-   C31
   938   937   934   940   9   0.00   0.65084   3 ;    C29-   C28-   C25-   H43
   938   937   944   945   9   0.00   0.00000   0 ;    C29-   C28-   O21-   H47
   939   935   938   942   9   0.00   0.65084   3 ;    H42-   C26-   C29-   H45
   939   935   938   946   9   0.00   0.65084   3 ;    H42-   C26-   C29-   O22
   939   935   954   955   9   0.00   1.60387   3 ;    H42-   C26-   O25-   C31
   940   934   936   943   9   0.00   0.65084   3 ;    H43-   C25-   C27-   H46
   940   934   936   948   9   0.00   0.00000   0 ;    H43-   C25-   C27-   O23
   940   934   936   948   9   0.00   1.04600   1 ;    H43-   C25-   C27-   O23
   940   934   936   949   9   0.00   0.65084   3 ;    H43-   C25-   C27-   C30
   940   934   937   941   9   0.00   0.65084   3 ;    H43-   C25-   C28-   H44
   940   934   937   944   9   0.00   0.00000   0 ;    H43-   C25-   C28-   O21
   940   934   937   944   9   0.00   1.04600   1 ;    H43-   C25-   C28-   O21
   941   937   938   942   9   0.00   0.65084   3 ;    H44-   C28-   C29-   H45
   941   937   938   946   9   0.00   0.00000   0 ;    H44-   C28-   C29-   O22
   941   937   938   946   9   0.00   1.04600   1 ;    H44-   C28-   C29-   O22
   941   937   944   945   9   0.00   0.47279   3 ;    H44-   C28-   O21-   H47
   942   938   935   948   9   0.00   0.00000   0 ;    H45-   C29-   C26-   O23
   942   938   935   948   9   0.00   1.04600   1 ;    H45-   C29-   C26-   O23
   942   938   935   954   9   0.00   0.00000   0 ;    H45-   C29-   C26-   O25
   942   938   935   954   9   0.00   1.04600   1 ;    H45-   C29-   C26-   O25
   942   938   937   944   9   0.00   0.00000   0 ;    H45-   C29-   C28-   O21
   942   938   937   944   9   0.00   1.04600   1 ;    H45-   C29-   C28-   O21
   942   938   946   947   9   0.00   0.47279   3 ;    H45-   C29-   O22-   H48
   943   936   949   950   9   0.00   0.65084   3 ;    H46-   C27-   C30-   H49
   943   936   949   951   9   0.00   0.65084   3 ;    H46-   C27-   C30-   H50
   943   936   949   952   9   0.00   0.00000   0 ;    H46-   C27-   C30-   O24
   943   936   949   952   9   0.00   1.04600   1 ;    H46-   C27-   C30-   O24
   944   937   938   946   9   0.00   3.76560   3 ;    O21-   C28-   C29-   O22
   944   937   938   946   9   0.00   4.72792   2 ;    O21-   C28-   C29-   O22
   946   938   935   948   9   0.00   0.00000   0 ;    O22-   C29-   C26-   O23
   946   938   935   948   9   0.00   4.22584   3 ;    O22-   C29-   C26-   O23
   946   938   935   948   9   180.00   0.08368   1 ;    O22-   C29-   C26-   O23
   946   938   935   954   9   0.00   0.00000   0 ;    O22-   C29-   C26-   O25
   946   938   935   954   9   0.00   4.22584   3 ;    O22-   C29-   C26-   O25
   946   938   935   954   9   180.00   0.08368   1 ;    O22-   C29-   C26-   O25
   948   935   954   955   9   0.00   5.18816   2 ;    O23-   C26-   O25-   C31
   948   935   954   955   9   180.00   0.00000   3 ;    O23-   C26-   O25-   C31
   948   935   954   955   9   180.00   4.05848   1 ;    O23-   C26-   O25-   C31
   948   936   949   950   9   0.00   0.00000   0 ;    O23-   C27-   C30-   H49
   948   936   949   950   9   0.00   1.04600   1 ;    O23-   C27-   C30-   H49
   948   936   949   951   9   0.00   0.00000   0 ;    O23-   C27-   C30-   H50
   948   936   949   951   9   0.00   1.04600   1 ;    O23-   C27-   C30-   H50
   948   936   949   952   9   0.00   0.00000   0 ;    O23-   C27-   C30-   O24
   948   936   949   952   9   0.00   4.22584   3 ;    O23-   C27-   C30-   O24
   948   936   949   952   9   180.00   0.08368   1 ;    O23-   C27-   C30-   O24
   950   949   952   953   9   0.00   0.47279   3 ;    H49-   C30-   O24-   H51
   951   949   952   953   9   0.00   0.47279   3 ;    H50-   C30-   O24-   H51
   954   955   957   956   9   0.00   0.65084   3 ;    O25-   C31-   C33-   C32
   954   955   957   960   9   0.00   0.00000   0 ;    O25-   C31-   C33-   H52
   954   955   957   960   9   0.00   1.04600   1 ;    O25-   C31-   C33-   H52
   954   955   957   973   9   0.00   0.00000   0 ;    O25-   C31-   C33-   O29
   954   955   957   973   9   0.00   4.22584   3 ;    O25-   C31-   C33-   O29
   954   955   957   973   9   180.00   0.08368   1 ;    O25-   C31-   C33-   O29
   954   955   958   962   9   0.00   0.00000   0 ;    O25-   C31-   C34-   H54
   954   955   958   962   9   0.00   1.04600   1 ;    O25-   C31-   C34-   H54
   954   955   958   965   9   0.00   0.00000   0 ;    O25-   C31-   C34-   O26
   954   955   958   965   9   180.00   0.00000   2 ;    O25-   C31-   C34-   O26
   954   955   958   965   9   180.00   0.71128   1 ;    O25-   C31-   C34-   O26
   954   955   958   966   9   0.00   0.65084   3 ;    O25-   C31-   C34-   C36
   955   957   956   959   9   0.00   0.46024   1 ;    C31-   C33-   C32-   C35
   955   957   956   959   9   0.00   0.54392   3 ;    C31-   C33-   C32-   C35
   955   957   956   959   9   180.00   1.21336   2 ;    C31-   C33-   C32-   C35
   955   957   956   961   9   0.00   0.65084   3 ;    C31-   C33-   C32-   H53
   955   957   956   971   9   0.00   0.87864   3 ;    C31-   C33-   C32-   O28
   955   957   973   974   9   0.00   0.00000   0 ;    C31-   C33-   O29-   H61
   955   958   965   959   9   0.00   0.00000   0 ;    C31-   C34-   O26-   C35
   955   958   965   959   9   0.00   0.66944   2 ;    C31-   C34-   O26-   C35
   955   958   965   959   9   0.00   1.00416   3 ;    C31-   C34-   O26-   C35
   955   958   966   967   9   0.00   0.65084   3 ;    C31-   C34-   C36-   H57
   955   958   966   968   9   0.00   0.65084   3 ;    C31-   C34-   C36-   H58
   955   958   966   969   9   0.00   0.87864   3 ;    C31-   C34-   C36-   O27
   956   957   955   958   9   0.00   0.46024   1 ;    C32-   C33-   C31-   C34
   956   957   955   958   9   0.00   0.54392   3 ;    C32-   C33-   C31-   C34
   956   957   955   958   9   180.00   1.21336   2 ;    C32-   C33-   C31-   C34
   956   957   955   964   9   0.00   0.65084   3 ;    C32-   C33-   C31-   H56
   956   957   973   974   9   0.00   0.00000   0 ;    C32-   C33-   O29-   H61
   956   959   965   958   9   0.00   0.00000   0 ;    C32-   C35-   O26-   C34
   956   959   965   958   9   0.00   0.66944   2 ;    C32-   C35-   O26-   C34
   956   959   965   958   9   0.00   1.00416   3 ;    C32-   C35-   O26-   C34
   956   959   975   976   9   0.00   0.00000   0 ;    C32-   C35-   O30-   C37
   956   959   975   976   9   0.00   0.66944   2 ;    C32-   C35-   O30-   C37
   956   959   975   976   9   0.00   1.00416   3 ;    C32-   C35-   O30-   C37
   957   955   958   962   9   0.00   0.65084   3 ;    C33-   C31-   C34-   H54
   957   955   958   965   9   0.00   0.65084   3 ;    C33-   C31-   C34-   O26
   957   955   958   966   9   0.00   0.46024   1 ;    C33-   C31-   C34-   C36
   957   955   958   966   9   0.00   0.54392   3 ;    C33-   C31-   C34-   C36
   957   955   958   966   9   180.00   1.21336   2 ;    C33-   C31-   C34-   C36
   957   956   959   963   9   0.00   0.65084   3 ;    C33-   C32-   C35-   H55
   957   956   959   965   9   0.00   0.65084   3 ;    C33-   C32-   C35-   O26
   957   956   959   975   9   0.00   0.65084   3 ;    C33-   C32-   C35-   O30
   957   956   971   972   9   0.00   0.00000   0 ;    C33-   C32-   O28-   H60
   958   955   957   960   9   0.00   0.65084   3 ;    C34-   C31-   C33-   H52
   958   955   957   973   9   0.00   0.87864   3 ;    C34-   C31-   C33-   O29
   958   965   959   963   9   0.00   1.60387   3 ;    C34-   O26-   C35-   H55
   958   965   959   975   9   0.00   5.18816   2 ;    C34-   O26-   C35-   O30
   958   965   959   975   9   180.00   0.00000   3 ;    C34-   O26-   C35-   O30
   958   965   959   975   9   180.00   4.05848   1 ;    C34-   O26-   C35-   O30
   958   966   969   970   9   0.00   0.00000   0 ;    C34-   C36-   O27-   H59
   959   956   957   960   9   0.00   0.65084   3 ;    C35-   C32-   C33-   H52
   959   956   957   973   9   0.00   0.87864   3 ;    C35-   C32-   C33-   O29
   959   956   971   972   9   0.00   0.00000   0 ;    C35-   C32-   O28-   H60
   959   965   958   962   9   0.00   1.41001   3 ;    C35-   O26-   C34-   H54
   959   965   958   966   9   0.00   0.00000   0 ;    C35-   O26-   C34-   C36
   959   965   958   966   9   0.00   0.66944   2 ;    C35-   O26-   C34-   C36
   959   965   958   966   9   0.00   1.00416   3 ;    C35-   O26-   C34-   C36
   959   975   976   978   9   0.00   0.00000   0 ;    C35-   O30-   C37-   C39
   959   975   976   978   9   0.00   0.66944   2 ;    C35-   O30-   C37-   C39
   959   975   976   978   9   0.00   1.00416   3 ;    C35-   O30-   C37-   C39
   959   975   976   979   9   0.00   0.00000   0 ;    C35-   O30-   C37-   C40
   959   975   976   979   9   0.00   0.66944   2 ;    C35-   O30-   C37-   C40
   959   975   976   979   9   0.00   1.00416   3 ;    C35-   O30-   C37-   C40
   959   975   976   982   9   0.00   1.41001   3 ;    C35-   O30-   C37-   H63
   960   957   955   964   9   0.00   0.65084   3 ;    H52-   C33-   C31-   H56
   960   957   956   961   9   0.00   0.65084   3 ;    H52-   C33-   C32-   H53
   960   957   956   971   9   0.00   0.00000   0 ;    H52-   C33-   C32-   O28
   960   957   956   971   9   0.00   1.04600   1 ;    H52-   C33-   C32-   O28
   960   957   973   974   9   0.00   0.47279   3 ;    H52-   C33-   O29-   H61
   961   956   957   973   9   0.00   0.00000   0 ;    H53-   C32-   C33-   O29
   961   956   957   973   9   0.00   1.04600   1 ;    H53-   C32-   C33-   O29
   961   956   959   963   9   0.00   0.65084   3 ;    H53-   C32-   C35-   H55
   961   956   959   965   9   0.00   0.00000   0 ;    H53-   C32-   C35-   O26
   961   956   959   965   9   0.00   1.04600   1 ;    H53-   C32-   C35-   O26
   961   956   959   975   9   0.00   0.00000   0 ;    H53-   C32-   C35-   O30
   961   956   959   975   9   0.00   1.04600   1 ;    H53-   C32-   C35-   O30
   961   956   971   972   9   0.00   0.47279   3 ;    H53-   C32-   O28-   H60
   962   958   955   964   9   0.00   0.65084   3 ;    H54-   C34-   C31-   H56
   962   958   966   967   9   0.00   0.65084   3 ;    H54-   C34-   C36-   H57
   962   958   966   968   9   0.00   0.65084   3 ;    H54-   C34-   C36-   H58
   962   958   966   969   9   0.00   0.00000   0 ;    H54-   C34-   C36-   O27
   962   958   966   969   9   0.00   1.04600   1 ;    H54-   C34-   C36-   O27
   963   959   956   971   9   0.00   0.65084   3 ;    H55-   C35-   C32-   O28
   963   959   975   976   9   0.00   1.60387   3 ;    H55-   C35-   O30-   C37
   964   955   957   973   9   0.00   0.00000   0 ;    H56-   C31-   C33-   O29
   964   955   957   973   9   0.00   1.04600   1 ;    H56-   C31-   C33-   O29
   964   955   958   965   9   0.00   0.00000   0 ;    H56-   C31-   C34-   O26
   964   955   958   965   9   0.00   1.04600   1 ;    H56-   C31-   C34-   O26
   964   955   958   966   9   0.00   0.65084   3 ;    H56-   C31-   C34-   C36
   965   958   966   967   9   0.00   0.00000   0 ;    O26-   C34-   C36-   H57
   965   958   966   967   9   0.00   1.04600   1 ;    O26-   C34-   C36-   H57
   965   958   966   968   9   0.00   0.00000   0 ;    O26-   C34-   C36-   H58
   965   958   966   968   9   0.00   1.04600   1 ;    O26-   C34-   C36-   H58
   965   958   966   969   9   0.00   0.00000   0 ;    O26-   C34-   C36-   O27
   965   958   966   969   9   0.00   4.22584   3 ;    O26-   C34-   C36-   O27
   965   958   966   969   9   180.00   0.08368   1 ;    O26-   C34-   C36-   O27
   965   959   956   971   9   0.00   0.00000   0 ;    O26-   C35-   C32-   O28
   965   959   956   971   9   0.00   4.22584   3 ;    O26-   C35-   C32-   O28
   965   959   956   971   9   180.00   0.08368   1 ;    O26-   C35-   C32-   O28
   965   959   975   976   9   0.00   5.18816   2 ;    O26-   C35-   O30-   C37
   965   959   975   976   9   180.00   0.00000   3 ;    O26-   C35-   O30-   C37
   965   959   975   976   9   180.00   4.05848   1 ;    O26-   C35-   O30-   C37
   967   966   969   970   9   0.00   0.47279   3 ;    H57-   C36-   O27-   H59
   968   966   969   970   9   0.00   0.47279   3 ;    H58-   C36-   O27-   H59
   971   956   957   973   9   0.00   3.76560   3 ;    O28-   C32-   C33-   O29
   971   956   957   973   9   0.00   4.72792   2 ;    O28-   C32-   C33-   O29
   971   956   959   975   9   0.00   0.00000   0 ;    O28-   C32-   C35-   O30
   971   956   959   975   9   0.00   4.22584   3 ;    O28-   C32-   C35-   O30
   971   956   959   975   9   180.00   0.08368   1 ;    O28-   C32-   C35-   O30
   975   976   978   985   9   0.00   0.00000   0 ;    O30-   C37-   C39-   H66
   975   976   978   985   9   0.00   1.04600   1 ;    O30-   C37-   C39-   H66
   975   976   978   990   9   0.00   0.00000   0 ;    O30-   C37-   C39-   O33
   975   976   978   990   9   180.00   0.00000   2 ;    O30-   C37-   C39-   O33
   975   976   978   990   9   180.00   0.71128   1 ;    O30-   C37-   C39-   O33
   975   976   978   991   9   0.00   0.65084   3 ;    O30-   C37-   C39-   C42
   975   976   979   980   9   0.00   0.65084   3 ;    O30-   C37-   C40-   C41
   975   976   979   983   9   0.00   0.00000   0 ;    O30-   C37-   C40-   H64
   975   976   979   983   9   0.00   1.04600   1 ;    O30-   C37-   C40-   H64
   975   976   979   986   9   0.00   0.00000   0 ;    O30-   C37-   C40-   O31
   975   976   979   986   9   0.00   4.22584   3 ;    O30-   C37-   C40-   O31
   975   976   979   986   9   180.00   0.08368   1 ;    O30-   C37-   C40-   O31
   976   978   990   977   9   0.00   0.00000   0 ;    C37-   C39-   O33-   C38
   976   978   990   977   9   0.00   0.66944   2 ;    C37-   C39-   O33-   C38
   976   978   990   977   9   0.00   1.00416   3 ;    C37-   C39-   O33-   C38
   976   978   991   992   9   0.00   0.65084   3 ;    C37-   C39-   C42-   H69
   976   978   991   993   9   0.00   0.65084   3 ;    C37-   C39-   C42-   H70
   976   978   991   994   9   0.00   0.87864   3 ;    C37-   C39-   C42-   O34
   976   979   980   977   9   0.00   0.46024   1 ;    C37-   C40-   C41-   C38
   976   979   980   977   9   0.00   0.54392   3 ;    C37-   C40-   C41-   C38
   976   979   980   977   9   180.00   1.21336   2 ;    C37-   C40-   C41-   C38
   976   979   980   984   9   0.00   0.65084   3 ;    C37-   C40-   C41-   H65
   976   979   980   988   9   0.00   0.87864   3 ;    C37-   C40-   C41-   O32
   976   979   986   987   9   0.00   0.00000   0 ;    C37-   C40-   O31-   H67
   977   980   979   983   9   0.00   0.65084   3 ;    C38-   C41-   C40-   H64
   977   980   979   986   9   0.00   0.87864   3 ;    C38-   C41-   C40-   O31
   977   980   988   989   9   0.00   0.00000   0 ;    C38-   C41-   O32-   H68
   977   990   978   985   9   0.00   1.41001   3 ;    C38-   O33-   C39-   H66
   977   990   978   991   9   0.00   0.00000   0 ;    C38-   O33-   C39-   C42
   977   990   978   991   9   0.00   0.66944   2 ;    C38-   O33-   C39-   C42
   977   990   978   991   9   0.00   1.00416   3 ;    C38-   O33-   C39-   C42
   977   996   997   999   9   0.00   0.00000   0 ;    C38-   O35-   C43-   C45
   977   996   997   999   9   0.00   0.66944   2 ;    C38-   O35-   C43-   C45
   977   996   997   999   9   0.00   1.00416   3 ;    C38-   O35-   C43-   C45
   977   996   997  1000   9   0.00   0.00000   0 ;    C38-   O35-   C43-   C46
   977   996   997  1000   9   0.00   0.66944   2 ;    C38-   O35-   C43-   C46
   977   996   997  1000   9   0.00   1.00416   3 ;    C38-   O35-   C43-   C46
   977   996   997  1006   9   0.00   1.41001   3 ;    C38-   O35-   C43-   H76
   978   976   979   980   9   0.00   0.46024   1 ;    C39-   C37-   C40-   C41
   978   976   979   980   9   0.00   0.54392   3 ;    C39-   C37-   C40-   C41
   978   976   979   980   9   180.00   1.21336   2 ;    C39-   C37-   C40-   C41
   978   976   979   983   9   0.00   0.65084   3 ;    C39-   C37-   C40-   H64
   978   976   979   986   9   0.00   0.87864   3 ;    C39-   C37-   C40-   O31
   978   990   977   980   9   0.00   0.00000   0 ;    C39-   O33-   C38-   C41
   978   990   977   980   9   0.00   0.66944   2 ;    C39-   O33-   C38-   C41
   978   990   977   980   9   0.00   1.00416   3 ;    C39-   O33-   C38-   C41
   978   990   977   981   9   0.00   1.60387   3 ;    C39-   O33-   C38-   H62
   978   990   977   996   9   0.00   5.18816   2 ;    C39-   O33-   C38-   O35
   978   990   977   996   9   180.00   0.00000   3 ;    C39-   O33-   C38-   O35
   978   990   977   996   9   180.00   4.05848   1 ;    C39-   O33-   C38-   O35
   978   991   994   995   9   0.00   0.00000   0 ;    C39-   C42-   O34-   H71
   979   976   978   985   9   0.00   0.65084   3 ;    C40-   C37-   C39-   H66
   979   976   978   990   9   0.00   0.65084   3 ;    C40-   C37-   C39-   O33
   979   976   978   991   9   0.00   0.46024   1 ;    C40-   C37-   C39-   C42
   979   976   978   991   9   0.00   0.54392   3 ;    C40-   C37-   C39-   C42
   979   976   978   991   9   180.00   1.21336   2 ;    C40-   C37-   C39-   C42
   979   980   977   981   9   0.00   0.65084   3 ;    C40-   C41-   C38-   H62
   979   980   977   990   9   0.00   0.65084   3 ;    C40-   C41-   C38-   O33
   979   980   977   996   9   0.00   0.65084   3 ;    C40-   C41-   C38-   O35
   979   980   988   989   9   0.00   0.00000   0 ;    C40-   C41-   O32-   H68
   980   977   996   997   9   0.00   0.00000   0 ;    C41-   C38-   O35-   C43
   980   977   996   997   9   0.00   0.66944   2 ;    C41-   C38-   O35-   C43
   980   977   996   997   9   0.00   1.00416   3 ;    C41-   C38-   O35-   C43
   980   979   976   982   9   0.00   0.65084   3 ;    C41-   C40-   C37-   H63
   980   979   986   987   9   0.00   0.00000   0 ;    C41-   C40-   O31-   H67
   981   977   980   984   9   0.00   0.65084   3 ;    H62-   C38-   C41-   H65
   981   977   980   988   9   0.00   0.65084   3 ;    H62-   C38-   C41-   O32
   981   977   996   997   9   0.00   1.60387   3 ;    H62-   C38-   O35-   C43
   982   976   978   985   9   0.00   0.65084   3 ;    H63-   C37-   C39-   H66
   982   976   978   990   9   0.00   0.00000   0 ;    H63-   C37-   C39-   O33
   982   976   978   990   9   0.00   1.04600   1 ;    H63-   C37-   C39-   O33
   982   976   978   991   9   0.00   0.65084   3 ;    H63-   C37-   C39-   C42
   982   976   979   983   9   0.00   0.65084   3 ;    H63-   C37-   C40-   H64
   982   976   979   986   9   0.00   0.00000   0 ;    H63-   C37-   C40-   O31
   982   976   979   986   9   0.00   1.04600   1 ;    H63-   C37-   C40-   O31
   983   979   980   984   9   0.00   0.65084   3 ;    H64-   C40-   C41-   H65
   983   979   980   988   9   0.00   0.00000   0 ;    H64-   C40-   C41-   O32
   983   979   980   988   9   0.00   1.04600   1 ;    H64-   C40-   C41-   O32
   983   979   986   987   9   0.00   0.47279   3 ;    H64-   C40-   O31-   H67
   984   980   977   990   9   0.00   0.00000   0 ;    H65-   C41-   C38-   O33
   984   980   977   990   9   0.00   1.04600   1 ;    H65-   C41-   C38-   O33
   984   980   977   996   9   0.00   0.00000   0 ;    H65-   C41-   C38-   O35
   984   980   977   996   9   0.00   1.04600   1 ;    H65-   C41-   C38-   O35
   984   980   979   986   9   0.00   0.00000   0 ;    H65-   C41-   C40-   O31
   984   980   979   986   9   0.00   1.04600   1 ;    H65-   C41-   C40-   O31
   984   980   988   989   9   0.00   0.47279   3 ;    H65-   C41-   O32-   H68
   985   978   991   992   9   0.00   0.65084   3 ;    H66-   C39-   C42-   H69
   985   978   991   993   9   0.00   0.65084   3 ;    H66-   C39-   C42-   H70
   985   978   991   994   9   0.00   0.00000   0 ;    H66-   C39-   C42-   O34
   985   978   991   994   9   0.00   1.04600   1 ;    H66-   C39-   C42-   O34
   986   979   980   988   9   0.00   3.76560   3 ;    O31-   C40-   C41-   O32
   986   979   980   988   9   0.00   4.72792   2 ;    O31-   C40-   C41-   O32
   988   980   977   990   9   0.00   0.00000   0 ;    O32-   C41-   C38-   O33
   988   980   977   990   9   0.00   4.22584   3 ;    O32-   C41-   C38-   O33
   988   980   977   990   9   180.00   0.08368   1 ;    O32-   C41-   C38-   O33
   988   980   977   996   9   0.00   0.00000   0 ;    O32-   C41-   C38-   O35
   988   980   977   996   9   0.00   4.22584   3 ;    O32-   C41-   C38-   O35
   988   980   977   996   9   180.00   0.08368   1 ;    O32-   C41-   C38-   O35
   990   977   996   997   9   0.00   5.18816   2 ;    O33-   C38-   O35-   C43
   990   977   996   997   9   180.00   0.00000   3 ;    O33-   C38-   O35-   C43
   990   977   996   997   9   180.00   4.05848   1 ;    O33-   C38-   O35-   C43
   990   978   991   992   9   0.00   0.00000   0 ;    O33-   C39-   C42-   H69
   990   978   991   992   9   0.00   1.04600   1 ;    O33-   C39-   C42-   H69
   990   978   991   993   9   0.00   0.00000   0 ;    O33-   C39-   C42-   H70
   990   978   991   993   9   0.00   1.04600   1 ;    O33-   C39-   C42-   H70
   990   978   991   994   9   0.00   0.00000   0 ;    O33-   C39-   C42-   O34
   990   978   991   994   9   0.00   4.22584   3 ;    O33-   C39-   C42-   O34
   990   978   991   994   9   180.00   0.08368   1 ;    O33-   C39-   C42-   O34
   992   991   994   995   9   0.00   0.47279   3 ;    H69-   C42-   O34-   H71
   993   991   994   995   9   0.00   0.47279   3 ;    H70-   C42-   O34-   H71
   996   997   999   998   9   0.00   0.65084   3 ;    O35-   C43-   C45-   C44
   996   997   999  1002   9   0.00   0.00000   0 ;    O35-   C43-   C45-   H72
   996   997   999  1002   9   0.00   1.04600   1 ;    O35-   C43-   C45-   H72
   996   997   999  1015   9   0.00   0.00000   0 ;    O35-   C43-   C45-   O39
   996   997   999  1015   9   0.00   4.22584   3 ;    O35-   C43-   C45-   O39
   996   997   999  1015   9   180.00   0.08368   1 ;    O35-   C43-   C45-   O39
   996   997  1000  1004   9   0.00   0.00000   0 ;    O35-   C43-   C46-   H74
   996   997  1000  1004   9   0.00   1.04600   1 ;    O35-   C43-   C46-   H74
   996   997  1000  1007   9   0.00   0.00000   0 ;    O35-   C43-   C46-   O36
   996   997  1000  1007   9   180.00   0.00000   2 ;    O35-   C43-   C46-   O36
   996   997  1000  1007   9   180.00   0.71128   1 ;    O35-   C43-   C46-   O36
   996   997  1000  1008   9   0.00   0.65084   3 ;    O35-   C43-   C46-   C48
   997   999   998  1001   9   0.00   0.46024   1 ;    C43-   C45-   C44-   C47
   997   999   998  1001   9   0.00   0.54392   3 ;    C43-   C45-   C44-   C47
   997   999   998  1001   9   180.00   1.21336   2 ;    C43-   C45-   C44-   C47
   997   999   998  1003   9   0.00   0.65084   3 ;    C43-   C45-   C44-   H73
   997   999   998  1013   9   0.00   0.87864   3 ;    C43-   C45-   C44-   O38
   997   999  1015  1016   9   0.00   0.00000   0 ;    C43-   C45-   O39-   H81
   997  1000  1007  1001   9   0.00   0.00000   0 ;    C43-   C46-   O36-   C47
   997  1000  1007  1001   9   0.00   0.66944   2 ;    C43-   C46-   O36-   C47
   997  1000  1007  1001   9   0.00   1.00416   3 ;    C43-   C46-   O36-   C47
   997  1000  1008  1009   9   0.00   0.65084   3 ;    C43-   C46-   C48-   H77
   997  1000  1008  1010   9   0.00   0.65084   3 ;    C43-   C46-   C48-   H78
   997  1000  1008  1011   9   0.00   0.87864   3 ;    C43-   C46-   C48-   O37
   998   999   997  1000   9   0.00   0.46024   1 ;    C44-   C45-   C43-   C46
   998   999   997  1000   9   0.00   0.54392   3 ;    C44-   C45-   C43-   C46
   998   999   997  1000   9   180.00   1.21336   2 ;    C44-   C45-   C43-   C46
   998   999   997  1006   9   0.00   0.65084   3 ;    C44-   C45-   C43-   H76
   998   999  1015  1016   9   0.00   0.00000   0 ;    C44-   C45-   O39-   H81
   998  1001  1007  1000   9   0.00   0.00000   0 ;    C44-   C47-   O36-   C46
   998  1001  1007  1000   9   0.00   0.66944   2 ;    C44-   C47-   O36-   C46
   998  1001  1007  1000   9   0.00   1.00416   3 ;    C44-   C47-   O36-   C46
   998  1001  1017  1018   9   0.00   0.00000   0 ;    C44-   C47-   O40-   C49
   998  1001  1017  1018   9   0.00   0.66944   2 ;    C44-   C47-   O40-   C49
   998  1001  1017  1018   9   0.00   1.00416   3 ;    C44-   C47-   O40-   C49
   999   997  1000  1004   9   0.00   0.65084   3 ;    C45-   C43-   C46-   H74
   999   997  1000  1007   9   0.00   0.65084   3 ;    C45-   C43-   C46-   O36
   999   997  1000  1008   9   0.00   0.46024   1 ;    C45-   C43-   C46-   C48
   999   997  1000  1008   9   0.00   0.54392   3 ;    C45-   C43-   C46-   C48
   999   997  1000  1008   9   180.00   1.21336   2 ;    C45-   C43-   C46-   C48
   999   998  1001  1005   9   0.00   0.65084   3 ;    C45-   C44-   C47-   H75
   999   998  1001  1007   9   0.00   0.65084   3 ;    C45-   C44-   C47-   O36
   999   998  1001  1017   9   0.00   0.65084   3 ;    C45-   C44-   C47-   O40
   999   998  1013  1014   9   0.00   0.00000   0 ;    C45-   C44-   O38-   H80
  1000   997   999  1002   9   0.00   0.65084   3 ;    C46-   C43-   C45-   H72
  1000   997   999  1015   9   0.00   0.87864   3 ;    C46-   C43-   C45-   O39
  1000  1007  1001  1005   9   0.00   1.60387   3 ;    C46-   O36-   C47-   H75
  1000  1007  1001  1017   9   0.00   5.18816   2 ;    C46-   O36-   C47-   O40
  1000  1007  1001  1017   9   180.00   0.00000   3 ;    C46-   O36-   C47-   O40
  1000  1007  1001  1017   9   180.00   4.05848   1 ;    C46-   O36-   C47-   O40
  1000  1008  1011  1012   9   0.00   0.00000   0 ;    C46-   C48-   O37-   H79
  1001   998   999  1002   9   0.00   0.65084   3 ;    C47-   C44-   C45-   H72
  1001   998   999  1015   9   0.00   0.87864   3 ;    C47-   C44-   C45-   O39
  1001   998  1013  1014   9   0.00   0.00000   0 ;    C47-   C44-   O38-   H80
  1001  1007  1000  1004   9   0.00   1.41001   3 ;    C47-   O36-   C46-   H74
  1001  1007  1000  1008   9   0.00   0.00000   0 ;    C47-   O36-   C46-   C48
  1001  1007  1000  1008   9   0.00   0.66944   2 ;    C47-   O36-   C46-   C48
  1001  1007  1000  1008   9   0.00   1.00416   3 ;    C47-   O36-   C46-   C48
  1001  1017  1018  1020   9   0.00   0.00000   0 ;    C47-   O40-   C49-   C51
  1001  1017  1018  1020   9   0.00   0.66944   2 ;    C47-   O40-   C49-   C51
  1001  1017  1018  1020   9   0.00   1.00416   3 ;    C47-   O40-   C49-   C51
  1001  1017  1018  1021   9   0.00   0.00000   0 ;    C47-   O40-   C49-   C52
  1001  1017  1018  1021   9   0.00   0.66944   2 ;    C47-   O40-   C49-   C52
  1001  1017  1018  1021   9   0.00   1.00416   3 ;    C47-   O40-   C49-   C52
  1001  1017  1018  1024   9   0.00   1.41001   3 ;    C47-   O40-   C49-   H83
  1002   999   997  1006   9   0.00   0.65084   3 ;    H72-   C45-   C43-   H76
  1002   999   998  1003   9   0.00   0.65084   3 ;    H72-   C45-   C44-   H73
  1002   999   998  1013   9   0.00   0.00000   0 ;    H72-   C45-   C44-   O38
  1002   999   998  1013   9   0.00   1.04600   1 ;    H72-   C45-   C44-   O38
  1002   999  1015  1016   9   0.00   0.47279   3 ;    H72-   C45-   O39-   H81
  1003   998   999  1015   9   0.00   0.00000   0 ;    H73-   C44-   C45-   O39
  1003   998   999  1015   9   0.00   1.04600   1 ;    H73-   C44-   C45-   O39
  1003   998  1001  1005   9   0.00   0.65084   3 ;    H73-   C44-   C47-   H75
  1003   998  1001  1007   9   0.00   0.00000   0 ;    H73-   C44-   C47-   O36
  1003   998  1001  1007   9   0.00   1.04600   1 ;    H73-   C44-   C47-   O36
  1003   998  1001  1017   9   0.00   0.00000   0 ;    H73-   C44-   C47-   O40
  1003   998  1001  1017   9   0.00   1.04600   1 ;    H73-   C44-   C47-   O40
  1003   998  1013  1014   9   0.00   0.47279   3 ;    H73-   C44-   O38-   H80
  1004  1000   997  1006   9   0.00   0.65084   3 ;    H74-   C46-   C43-   H76
  1004  1000  1008  1009   9   0.00   0.65084   3 ;    H74-   C46-   C48-   H77
  1004  1000  1008  1010   9   0.00   0.65084   3 ;    H74-   C46-   C48-   H78
  1004  1000  1008  1011   9   0.00   0.00000   0 ;    H74-   C46-   C48-   O37
  1004  1000  1008  1011   9   0.00   1.04600   1 ;    H74-   C46-   C48-   O37
  1005  1001   998  1013   9   0.00   0.65084   3 ;    H75-   C47-   C44-   O38
  1005  1001  1017  1018   9   0.00   1.60387   3 ;    H75-   C47-   O40-   C49
  1006   997   999  1015   9   0.00   0.00000   0 ;    H76-   C43-   C45-   O39
  1006   997   999  1015   9   0.00   1.04600   1 ;    H76-   C43-   C45-   O39
  1006   997  1000  1007   9   0.00   0.00000   0 ;    H76-   C43-   C46-   O36
  1006   997  1000  1007   9   0.00   1.04600   1 ;    H76-   C43-   C46-   O36
  1006   997  1000  1008   9   0.00   0.65084   3 ;    H76-   C43-   C46-   C48
  1007  1000  1008  1009   9   0.00   0.00000   0 ;    O36-   C46-   C48-   H77
  1007  1000  1008  1009   9   0.00   1.04600   1 ;    O36-   C46-   C48-   H77
  1007  1000  1008  1010   9   0.00   0.00000   0 ;    O36-   C46-   C48-   H78
  1007  1000  1008  1010   9   0.00   1.04600   1 ;    O36-   C46-   C48-   H78
  1007  1000  1008  1011   9   0.00   0.00000   0 ;    O36-   C46-   C48-   O37
  1007  1000  1008  1011   9   0.00   4.22584   3 ;    O36-   C46-   C48-   O37
  1007  1000  1008  1011   9   180.00   0.08368   1 ;    O36-   C46-   C48-   O37
  1007  1001   998  1013   9   0.00   0.00000   0 ;    O36-   C47-   C44-   O38
  1007  1001   998  1013   9   0.00   4.22584   3 ;    O36-   C47-   C44-   O38
  1007  1001   998  1013   9   180.00   0.08368   1 ;    O36-   C47-   C44-   O38
  1007  1001  1017  1018   9   0.00   5.18816   2 ;    O36-   C47-   O40-   C49
  1007  1001  1017  1018   9   180.00   0.00000   3 ;    O36-   C47-   O40-   C49
  1007  1001  1017  1018   9   180.00   4.05848   1 ;    O36-   C47-   O40-   C49
  1009  1008  1011  1012   9   0.00   0.47279   3 ;    H77-   C48-   O37-   H79
  1010  1008  1011  1012   9   0.00   0.47279   3 ;    H78-   C48-   O37-   H79
  1013   998   999  1015   9   0.00   3.76560   3 ;    O38-   C44-   C45-   O39
  1013   998   999  1015   9   0.00   4.72792   2 ;    O38-   C44-   C45-   O39
  1013   998  1001  1017   9   0.00   0.00000   0 ;    O38-   C44-   C47-   O40
  1013   998  1001  1017   9   0.00   4.22584   3 ;    O38-   C44-   C47-   O40
  1013   998  1001  1017   9   180.00   0.08368   1 ;    O38-   C44-   C47-   O40
  1017  1018  1020  1027   9   0.00   0.00000   0 ;    O40-   C49-   C51-   H86
  1017  1018  1020  1027   9   0.00   1.04600   1 ;    O40-   C49-   C51-   H86
  1017  1018  1020  1032   9   0.00   0.00000   0 ;    O40-   C49-   C51-   O43
  1017  1018  1020  1032   9   180.00   0.00000   2 ;    O40-   C49-   C51-   O43
  1017  1018  1020  1032   9   180.00   0.71128   1 ;    O40-   C49-   C51-   O43
  1017  1018  1020  1033   9   0.00   0.65084   3 ;    O40-   C49-   C51-   C54
  1017  1018  1021  1022   9   0.00   0.65084   3 ;    O40-   C49-   C52-   C53
  1017  1018  1021  1025   9   0.00   0.00000   0 ;    O40-   C49-   C52-   H84
  1017  1018  1021  1025   9   0.00   1.04600   1 ;    O40-   C49-   C52-   H84
  1017  1018  1021  1028   9   0.00   0.00000   0 ;    O40-   C49-   C52-   O41
  1017  1018  1021  1028   9   0.00   4.22584   3 ;    O40-   C49-   C52-   O41
  1017  1018  1021  1028   9   180.00   0.08368   1 ;    O40-   C49-   C52-   O41
  1018  1020  1032  1019   9   0.00   0.00000   0 ;    C49-   C51-   O43-   C50
  1018  1020  1032  1019   9   0.00   0.66944   2 ;    C49-   C51-   O43-   C50
  1018  1020  1032  1019   9   0.00   1.00416   3 ;    C49-   C51-   O43-   C50
  1018  1020  1033  1034   9   0.00   0.65084   3 ;    C49-   C51-   C54-   H89
  1018  1020  1033  1035   9   0.00   0.65084   3 ;    C49-   C51-   C54-   H90
  1018  1020  1033  1036   9   0.00   0.87864   3 ;    C49-   C51-   C54-   O44
  1018  1021  1022  1019   9   0.00   0.46024   1 ;    C49-   C52-   C53-   C50
  1018  1021  1022  1019   9   0.00   0.54392   3 ;    C49-   C52-   C53-   C50
  1018  1021  1022  1019   9   180.00   1.21336   2 ;    C49-   C52-   C53-   C50
  1018  1021  1022  1026   9   0.00   0.65084   3 ;    C49-   C52-   C53-   H85
  1018  1021  1022  1030   9   0.00   0.87864   3 ;    C49-   C52-   C53-   O42
  1018  1021  1028  1029   9   0.00   0.00000   0 ;    C49-   C52-   O41-   H87
  1019  1022  1021  1025   9   0.00   0.65084   3 ;    C50-   C53-   C52-   H84
  1019  1022  1021  1028   9   0.00   0.87864   3 ;    C50-   C53-   C52-   O41
  1019  1022  1030  1031   9   0.00   0.00000   0 ;    C50-   C53-   O42-   H88
  1019  1032  1020  1027   9   0.00   1.41001   3 ;    C50-   O43-   C51-   H86
  1019  1032  1020  1033   9   0.00   0.00000   0 ;    C50-   O43-   C51-   C54
  1019  1032  1020  1033   9   0.00   0.66944   2 ;    C50-   O43-   C51-   C54
  1019  1032  1020  1033   9   0.00   1.00416   3 ;    C50-   O43-   C51-   C54
  1019  1038  1039  1041   9   0.00   0.00000   0 ;    C50-   O45-   C55-   C57
  1019  1038  1039  1041   9   0.00   0.66944   2 ;    C50-   O45-   C55-   C57
  1019  1038  1039  1041   9   0.00   1.00416   3 ;    C50-   O45-   C55-   C57
  1019  1038  1039  1042   9   0.00   0.00000   0 ;    C50-   O45-   C55-   C58
  1019  1038  1039  1042   9   0.00   0.66944   2 ;    C50-   O45-   C55-   C58
  1019  1038  1039  1042   9   0.00   1.00416   3 ;    C50-   O45-   C55-   C58
  1019  1038  1039  1048   9   0.00   1.41001   3 ;    C50-   O45-   C55-   H96
  1020  1018  1021  1022   9   0.00   0.46024   1 ;    C51-   C49-   C52-   C53
  1020  1018  1021  1022   9   0.00   0.54392   3 ;    C51-   C49-   C52-   C53
  1020  1018  1021  1022   9   180.00   1.21336   2 ;    C51-   C49-   C52-   C53
  1020  1018  1021  1025   9   0.00   0.65084   3 ;    C51-   C49-   C52-   H84
  1020  1018  1021  1028   9   0.00   0.87864   3 ;    C51-   C49-   C52-   O41
  1020  1032  1019  1022   9   0.00   0.00000   0 ;    C51-   O43-   C50-   C53
  1020  1032  1019  1022   9   0.00   0.66944   2 ;    C51-   O43-   C50-   C53
  1020  1032  1019  1022   9   0.00   1.00416   3 ;    C51-   O43-   C50-   C53
  1020  1032  1019  1023   9   0.00   1.60387   3 ;    C51-   O43-   C50-   H82
  1020  1032  1019  1038   9   0.00   5.18816   2 ;    C51-   O43-   C50-   O45
  1020  1032  1019  1038   9   180.00   0.00000   3 ;    C51-   O43-   C50-   O45
  1020  1032  1019  1038   9   180.00   4.05848   1 ;    C51-   O43-   C50-   O45
  1020  1033  1036  1037   9   0.00   0.00000   0 ;    C51-   C54-   O44-   H91
  1021  1018  1020  1027   9   0.00   0.65084   3 ;    C52-   C49-   C51-   H86
  1021  1018  1020  1032   9   0.00   0.65084   3 ;    C52-   C49-   C51-   O43
  1021  1018  1020  1033   9   0.00   0.46024   1 ;    C52-   C49-   C51-   C54
  1021  1018  1020  1033   9   0.00   0.54392   3 ;    C52-   C49-   C51-   C54
  1021  1018  1020  1033   9   180.00   1.21336   2 ;    C52-   C49-   C51-   C54
  1021  1022  1019  1023   9   0.00   0.65084   3 ;    C52-   C53-   C50-   H82
  1021  1022  1019  1032   9   0.00   0.65084   3 ;    C52-   C53-   C50-   O43
  1021  1022  1019  1038   9   0.00   0.65084   3 ;    C52-   C53-   C50-   O45
  1021  1022  1030  1031   9   0.00   0.00000   0 ;    C52-   C53-   O42-   H88
  1022  1019  1038  1039   9   0.00   0.00000   0 ;    C53-   C50-   O45-   C55
  1022  1019  1038  1039   9   0.00   0.66944   2 ;    C53-   C50-   O45-   C55
  1022  1019  1038  1039   9   0.00   1.00416   3 ;    C53-   C50-   O45-   C55
  1022  1021  1018  1024   9   0.00   0.65084   3 ;    C53-   C52-   C49-   H83
  1022  1021  1028  1029   9   0.00   0.00000   0 ;    C53-   C52-   O41-   H87
  1023  1019  1022  1026   9   0.00   0.65084   3 ;    H82-   C50-   C53-   H85
  1023  1019  1022  1030   9   0.00   0.65084   3 ;    H82-   C50-   C53-   O42
  1023  1019  1038  1039   9   0.00   1.60387   3 ;    H82-   C50-   O45-   C55
  1024  1018  1020  1027   9   0.00   0.65084   3 ;    H83-   C49-   C51-   H86
  1024  1018  1020  1032   9   0.00   0.00000   0 ;    H83-   C49-   C51-   O43
  1024  1018  1020  1032   9   0.00   1.04600   1 ;    H83-   C49-   C51-   O43
  1024  1018  1020  1033   9   0.00   0.65084   3 ;    H83-   C49-   C51-   C54
  1024  1018  1021  1025   9   0.00   0.65084   3 ;    H83-   C49-   C52-   H84
  1024  1018  1021  1028   9   0.00   0.00000   0 ;    H83-   C49-   C52-   O41
  1024  1018  1021  1028   9   0.00   1.04600   1 ;    H83-   C49-   C52-   O41
  1025  1021  1022  1026   9   0.00   0.65084   3 ;    H84-   C52-   C53-   H85
  1025  1021  1022  1030   9   0.00   0.00000   0 ;    H84-   C52-   C53-   O42
  1025  1021  1022  1030   9   0.00   1.04600   1 ;    H84-   C52-   C53-   O42
  1025  1021  1028  1029   9   0.00   0.47279   3 ;    H84-   C52-   O41-   H87
  1026  1022  1019  1032   9   0.00   0.00000   0 ;    H85-   C53-   C50-   O43
  1026  1022  1019  1032   9   0.00   1.04600   1 ;    H85-   C53-   C50-   O43
  1026  1022  1019  1038   9   0.00   0.00000   0 ;    H85-   C53-   C50-   O45
  1026  1022  1019  1038   9   0.00   1.04600   1 ;    H85-   C53-   C50-   O45
  1026  1022  1021  1028   9   0.00   0.00000   0 ;    H85-   C53-   C52-   O41
  1026  1022  1021  1028   9   0.00   1.04600   1 ;    H85-   C53-   C52-   O41
  1026  1022  1030  1031   9   0.00   0.47279   3 ;    H85-   C53-   O42-   H88
  1027  1020  1033  1034   9   0.00   0.65084   3 ;    H86-   C51-   C54-   H89
  1027  1020  1033  1035   9   0.00   0.65084   3 ;    H86-   C51-   C54-   H90
  1027  1020  1033  1036   9   0.00   0.00000   0 ;    H86-   C51-   C54-   O44
  1027  1020  1033  1036   9   0.00   1.04600   1 ;    H86-   C51-   C54-   O44
  1028  1021  1022  1030   9   0.00   3.76560   3 ;    O41-   C52-   C53-   O42
  1028  1021  1022  1030   9   0.00   4.72792   2 ;    O41-   C52-   C53-   O42
  1030  1022  1019  1032   9   0.00   0.00000   0 ;    O42-   C53-   C50-   O43
  1030  1022  1019  1032   9   0.00   4.22584   3 ;    O42-   C53-   C50-   O43
  1030  1022  1019  1032   9   180.00   0.08368   1 ;    O42-   C53-   C50-   O43
  1030  1022  1019  1038   9   0.00   0.00000   0 ;    O42-   C53-   C50-   O45
  1030  1022  1019  1038   9   0.00   4.22584   3 ;    O42-   C53-   C50-   O45
  1030  1022  1019  1038   9   180.00   0.08368   1 ;    O42-   C53-   C50-   O45
  1032  1019  1038  1039   9   0.00   5.18816   2 ;    O43-   C50-   O45-   C55
  1032  1019  1038  1039   9   180.00   0.00000   3 ;    O43-   C50-   O45-   C55
  1032  1019  1038  1039   9   180.00   4.05848   1 ;    O43-   C50-   O45-   C55
  1032  1020  1033  1034   9   0.00   0.00000   0 ;    O43-   C51-   C54-   H89
  1032  1020  1033  1034   9   0.00   1.04600   1 ;    O43-   C51-   C54-   H89
  1032  1020  1033  1035   9   0.00   0.00000   0 ;    O43-   C51-   C54-   H90
  1032  1020  1033  1035   9   0.00   1.04600   1 ;    O43-   C51-   C54-   H90
  1032  1020  1033  1036   9   0.00   0.00000   0 ;    O43-   C51-   C54-   O44
  1032  1020  1033  1036   9   0.00   4.22584   3 ;    O43-   C51-   C54-   O44
  1032  1020  1033  1036   9   180.00   0.08368   1 ;    O43-   C51-   C54-   O44
  1034  1033  1036  1037   9   0.00   0.47279   3 ;    H89-   C54-   O44-   H91
  1035  1033  1036  1037   9   0.00   0.47279   3 ;    H90-   C54-   O44-   H91
  1038  1039  1041  1040   9   0.00   0.65084   3 ;    O45-   C55-   C57-   C56
  1038  1039  1041  1044   9   0.00   0.00000   0 ;    O45-   C55-   C57-   H92
  1038  1039  1041  1044   9   0.00   1.04600   1 ;    O45-   C55-   C57-   H92
  1038  1039  1041  1057   9   0.00   0.00000   0 ;    O45-   C55-   C57-   O49
  1038  1039  1041  1057   9   0.00   4.22584   3 ;    O45-   C55-   C57-   O49
  1038  1039  1041  1057   9   180.00   0.08368   1 ;    O45-   C55-   C57-   O49
  1038  1039  1042  1046   9   0.00   0.00000   0 ;    O45-   C55-   C58-   H94
  1038  1039  1042  1046   9   0.00   1.04600   1 ;    O45-   C55-   C58-   H94
  1038  1039  1042  1049   9   0.00   0.00000   0 ;    O45-   C55-   C58-   O46
  1038  1039  1042  1049   9   180.00   0.00000   2 ;    O45-   C55-   C58-   O46
  1038  1039  1042  1049   9   180.00   0.71128   1 ;    O45-   C55-   C58-   O46
  1038  1039  1042  1050   9   0.00   0.65084   3 ;    O45-   C55-   C58-   C60
  1039  1041  1040  1043   9   0.00   0.46024   1 ;    C55-   C57-   C56-   C59
  1039  1041  1040  1043   9   0.00   0.54392   3 ;    C55-   C57-   C56-   C59
  1039  1041  1040  1043   9   180.00   1.21336   2 ;    C55-   C57-   C56-   C59
  1039  1041  1040  1045   9   0.00   0.65084   3 ;    C55-   C57-   C56-   H93
  1039  1041  1040  1055   9   0.00   0.87864   3 ;    C55-   C57-   C56-   O48
  1039  1041  1057  1058   9   0.00   0.00000   0 ;    C55-   C57-   O49-  H101
  1039  1042  1049  1043   9   0.00   0.00000   0 ;    C55-   C58-   O46-   C59
  1039  1042  1049  1043   9   0.00   0.66944   2 ;    C55-   C58-   O46-   C59
  1039  1042  1049  1043   9   0.00   1.00416   3 ;    C55-   C58-   O46-   C59
  1039  1042  1050  1051   9   0.00   0.65084   3 ;    C55-   C58-   C60-   H97
  1039  1042  1050  1052   9   0.00   0.65084   3 ;    C55-   C58-   C60-   H98
  1039  1042  1050  1053   9   0.00   0.87864   3 ;    C55-   C58-   C60-   O47
  1040  1041  1039  1042   9   0.00   0.46024   1 ;    C56-   C57-   C55-   C58
  1040  1041  1039  1042   9   0.00   0.54392   3 ;    C56-   C57-   C55-   C58
  1040  1041  1039  1042   9   180.00   1.21336   2 ;    C56-   C57-   C55-   C58
  1040  1041  1039  1048   9   0.00   0.65084   3 ;    C56-   C57-   C55-   H96
  1040  1041  1057  1058   9   0.00   0.00000   0 ;    C56-   C57-   O49-  H101
  1040  1043  1049  1042   9   0.00   0.00000   0 ;    C56-   C59-   O46-   C58
  1040  1043  1049  1042   9   0.00   0.66944   2 ;    C56-   C59-   O46-   C58
  1040  1043  1049  1042   9   0.00   1.00416   3 ;    C56-   C59-   O46-   C58
  1040  1043  1059  1060   9   0.00   0.00000   0 ;    C56-   C59-   O50-  H102
  1041  1039  1042  1046   9   0.00   0.65084   3 ;    C57-   C55-   C58-   H94
  1041  1039  1042  1049   9   0.00   0.65084   3 ;    C57-   C55-   C58-   O46
  1041  1039  1042  1050   9   0.00   0.46024   1 ;    C57-   C55-   C58-   C60
  1041  1039  1042  1050   9   0.00   0.54392   3 ;    C57-   C55-   C58-   C60
  1041  1039  1042  1050   9   180.00   1.21336   2 ;    C57-   C55-   C58-   C60
  1041  1040  1043  1047   9   0.00   0.65084   3 ;    C57-   C56-   C59-   H95
  1041  1040  1043  1049   9   0.00   0.65084   3 ;    C57-   C56-   C59-   O46
  1041  1040  1043  1059   9   0.00   0.87864   3 ;    C57-   C56-   C59-   O50
  1041  1040  1055  1056   9   0.00   0.00000   0 ;    C57-   C56-   O48-  H100
  1042  1039  1041  1044   9   0.00   0.65084   3 ;    C58-   C55-   C57-   H92
  1042  1039  1041  1057   9   0.00   0.87864   3 ;    C58-   C55-   C57-   O49
  1042  1049  1043  1047   9   0.00   1.60387   3 ;    C58-   O46-   C59-   H95
  1042  1049  1043  1059   9   0.00   1.60387   3 ;    C58-   O46-   C59-   O50
  1042  1050  1053  1054   9   0.00   0.00000   0 ;    C58-   C60-   O47-   H99
  1043  1040  1041  1044   9   0.00   0.65084   3 ;    C59-   C56-   C57-   H92
  1043  1040  1041  1057   9   0.00   0.87864   3 ;    C59-   C56-   C57-   O49
  1043  1040  1055  1056   9   0.00   0.00000   0 ;    C59-   C56-   O48-  H100
  1043  1049  1042  1046   9   0.00   1.41001   3 ;    C59-   O46-   C58-   H94
  1043  1049  1042  1050   9   0.00   0.00000   0 ;    C59-   O46-   C58-   C60
  1043  1049  1042  1050   9   0.00   0.66944   2 ;    C59-   O46-   C58-   C60
  1043  1049  1042  1050   9   0.00   1.00416   3 ;    C59-   O46-   C58-   C60
  1044  1041  1039  1048   9   0.00   0.65084   3 ;    H92-   C57-   C55-   H96
  1044  1041  1040  1045   9   0.00   0.65084   3 ;    H92-   C57-   C56-   H93
  1044  1041  1040  1055   9   0.00   0.00000   0 ;    H92-   C57-   C56-   O48
  1044  1041  1040  1055   9   0.00   1.04600   1 ;    H92-   C57-   C56-   O48
  1044  1041  1057  1058   9   0.00   0.47279   3 ;    H92-   C57-   O49-  H101
  1045  1040  1041  1057   9   0.00   0.00000   0 ;    H93-   C56-   C57-   O49
  1045  1040  1041  1057   9   0.00   1.04600   1 ;    H93-   C56-   C57-   O49
  1045  1040  1043  1047   9   0.00   0.65084   3 ;    H93-   C56-   C59-   H95
  1045  1040  1043  1049   9   0.00   0.00000   0 ;    H93-   C56-   C59-   O46
  1045  1040  1043  1049   9   0.00   1.04600   1 ;    H93-   C56-   C59-   O46
  1045  1040  1043  1059   9   0.00   0.00000   0 ;    H93-   C56-   C59-   O50
  1045  1040  1043  1059   9   0.00   1.04600   1 ;    H93-   C56-   C59-   O50
  1045  1040  1055  1056   9   0.00   0.47279   3 ;    H93-   C56-   O48-  H100
  1046  1042  1039  1048   9   0.00   0.65084   3 ;    H94-   C58-   C55-   H96
  1046  1042  1050  1051   9   0.00   0.65084   3 ;    H94-   C58-   C60-   H97
  1046  1042  1050  1052   9   0.00   0.65084   3 ;    H94-   C58-   C60-   H98
  1046  1042  1050  1053   9   0.00   0.00000   0 ;    H94-   C58-   C60-   O47
  1046  1042  1050  1053   9   0.00   1.04600   1 ;    H94-   C58-   C60-   O47
  1047  1043  1040  1055   9   0.00   0.65084   3 ;    H95-   C59-   C56-   O48
  1047  1043  1059  1060   9   0.00   0.69733   3 ;    H95-   C59-   O50-  H102
  1048  1039  1041  1057   9   0.00   0.00000   0 ;    H96-   C55-   C57-   O49
  1048  1039  1041  1057   9   0.00   1.04600   1 ;    H96-   C55-   C57-   O49
  1048  1039  1042  1049   9   0.00   0.00000   0 ;    H96-   C55-   C58-   O46
  1048  1039  1042  1049   9   0.00   1.04600   1 ;    H96-   C55-   C58-   O46
  1048  1039  1042  1050   9   0.00   0.65084   3 ;    H96-   C55-   C58-   C60
  1049  1042  1050  1051   9   0.00   0.00000   0 ;    O46-   C58-   C60-   H97
  1049  1042  1050  1051   9   0.00   1.04600   1 ;    O46-   C58-   C60-   H97
  1049  1042  1050  1052   9   0.00   0.00000   0 ;    O46-   C58-   C60-   H98
  1049  1042  1050  1052   9   0.00   1.04600   1 ;    O46-   C58-   C60-   H98
  1049  1042  1050  1053   9   0.00   0.00000   0 ;    O46-   C58-   C60-   O47
  1049  1042  1050  1053   9   0.00   4.22584   3 ;    O46-   C58-   C60-   O47
  1049  1042  1050  1053   9   180.00   0.08368   1 ;    O46-   C58-   C60-   O47
  1049  1043  1040  1055   9   0.00   0.00000   0 ;    O46-   C59-   C56-   O48
  1049  1043  1040  1055   9   0.00   4.22584   3 ;    O46-   C59-   C56-   O48
  1049  1043  1040  1055   9   180.00   0.08368   1 ;    O46-   C59-   C56-   O48
  1049  1043  1059  1060   9   0.00   0.69733   3 ;    O46-   C59-   O50-  H102
  1051  1050  1053  1054   9   0.00   0.47279   3 ;    H97-   C60-   O47-   H99
  1052  1050  1053  1054   9   0.00   0.47279   3 ;    H98-   C60-   O47-   H99
  1055  1040  1041  1057   9   0.00   3.76560   3 ;    O48-   C56-   C57-   O49
  1055  1040  1041  1057   9   0.00   4.72792   2 ;    O48-   C56-   C57-   O49
  1055  1040  1043  1059   9   0.00   3.76560   3 ;    O48-   C56-   C59-   O50
  1055  1040  1043  1059   9   0.00   4.72792   2 ;    O48-   C56-   C59-   O50
  1061  1062  1064  1071   9   0.00   0.65084   3 ;     H1-    C1-    C3-    H6
  1061  1062  1064  1076   9   0.00   0.00000   0 ;     H1-    C1-    C3-    O3
  1061  1062  1064  1076   9   0.00   1.04600   1 ;     H1-    C1-    C3-    O3
  1061  1062  1064  1077   9   0.00   0.33472   3 ;     H1-    C1-    C3-    C6
  1061  1062  1065  1066   9   0.00   0.33472   3 ;     H1-    C1-    C4-    C5
  1061  1062  1065  1069   9   0.00   0.65084   3 ;     H1-    C1-    C4-    H4
  1061  1062  1065  1072   9   0.00   0.75312   3 ;     H1-    C1-    C4-    O1
  1061  1062  1065  1072   9   0.00   2.13384   1 ;     H1-    C1-    C4-    O1
  1062  1064  1076  1063   9   0.00   0.00000   0 ;     C1-    C3-    O3-    C2
  1062  1064  1076  1063   9   0.00   0.66944   2 ;     C1-    C3-    O3-    C2
  1062  1064  1076  1063   9   0.00   1.00416   3 ;     C1-    C3-    O3-    C2
  1062  1064  1077  1078   9   0.00   0.65084   3 ;     C1-    C3-    C6-    H9
  1062  1064  1077  1079   9   0.00   0.65084   3 ;     C1-    C3-    C6-   H10
  1062  1064  1077  1080   9   0.00   0.87864   3 ;     C1-    C3-    C6-    O4
  1062  1065  1066  1063   9   0.00   0.46024   1 ;     C1-    C4-    C5-    C2
  1062  1065  1066  1063   9   0.00   0.54392   3 ;     C1-    C4-    C5-    C2
  1062  1065  1066  1063   9   180.00   1.21336   2 ;     C1-    C4-    C5-    C2
  1062  1065  1066  1070   9   0.00   0.65084   3 ;     C1-    C4-    C5-    H5
  1062  1065  1066  1074   9   0.00   0.87864   3 ;     C1-    C4-    C5-    O2
  1062  1065  1072  1073   9   0.00   0.00000   0 ;     C1-    C4-    O1-    H7
  1063  1066  1065  1069   9   0.00   0.65084   3 ;     C2-    C5-    C4-    H4
  1063  1066  1065  1072   9   0.00   0.87864   3 ;     C2-    C5-    C4-    O1
  1063  1066  1074  1075   9   0.00   0.00000   0 ;     C2-    C5-    O2-    H8
  1063  1076  1064  1071   9   0.00   1.41001   3 ;     C2-    O3-    C3-    H6
  1063  1076  1064  1077   9   0.00   0.00000   0 ;     C2-    O3-    C3-    C6
  1063  1076  1064  1077   9   0.00   0.66944   2 ;     C2-    O3-    C3-    C6
  1063  1076  1064  1077   9   0.00   1.00416   3 ;     C2-    O3-    C3-    C6
  1063  1082  1083  1085   9   0.00   0.00000   0 ;     C2-    O5-    C7-    C9
  1063  1082  1083  1085   9   0.00   0.66944   2 ;     C2-    O5-    C7-    C9
  1063  1082  1083  1085   9   0.00   1.00416   3 ;     C2-    O5-    C7-    C9
  1063  1082  1083  1086   9   0.00   0.00000   0 ;     C2-    O5-    C7-   C10
  1063  1082  1083  1086   9   0.00   0.66944   2 ;     C2-    O5-    C7-   C10
  1063  1082  1083  1086   9   0.00   1.00416   3 ;     C2-    O5-    C7-   C10
  1063  1082  1083  1092   9   0.00   1.41001   3 ;     C2-    O5-    C7-   H16
  1064  1062  1065  1066   9   0.00   0.46024   1 ;     C3-    C1-    C4-    C5
  1064  1062  1065  1066   9   0.00   0.54392   3 ;     C3-    C1-    C4-    C5
  1064  1062  1065  1066   9   180.00   1.21336   2 ;     C3-    C1-    C4-    C5
  1064  1062  1065  1069   9   0.00   0.65084   3 ;     C3-    C1-    C4-    H4
  1064  1062  1065  1072   9   0.00   0.87864   3 ;     C3-    C1-    C4-    O1
  1064  1076  1063  1066   9   0.00   0.00000   0 ;     C3-    O3-    C2-    C5
  1064  1076  1063  1066   9   0.00   0.66944   2 ;     C3-    O3-    C2-    C5
  1064  1076  1063  1066   9   0.00   1.00416   3 ;     C3-    O3-    C2-    C5
  1064  1076  1063  1067   9   0.00   1.60387   3 ;     C3-    O3-    C2-    H2
  1064  1076  1063  1082   9   0.00   5.18816   2 ;     C3-    O3-    C2-    O5
  1064  1076  1063  1082   9   180.00   0.00000   3 ;     C3-    O3-    C2-    O5
  1064  1076  1063  1082   9   180.00   4.05848   1 ;     C3-    O3-    C2-    O5
  1064  1077  1080  1081   9   0.00   0.00000   0 ;     C3-    C6-    O4-   H11
  1065  1062  1064  1071   9   0.00   0.65084   3 ;     C4-    C1-    C3-    H6
  1065  1062  1064  1076   9   0.00   0.65084   3 ;     C4-    C1-    C3-    O3
  1065  1062  1064  1077   9   0.00   0.46024   1 ;     C4-    C1-    C3-    C6
  1065  1062  1064  1077   9   0.00   0.54392   3 ;     C4-    C1-    C3-    C6
  1065  1062  1064  1077   9   180.00   1.21336   2 ;     C4-    C1-    C3-    C6
  1065  1066  1063  1067   9   0.00   0.65084   3 ;     C4-    C5-    C2-    H2
  1065  1066  1063  1076   9   0.00   0.65084   3 ;     C4-    C5-    C2-    O3
  1065  1066  1063  1082   9   0.00   0.65084   3 ;     C4-    C5-    C2-    O5
  1065  1066  1074  1075   9   0.00   0.00000   0 ;     C4-    C5-    O2-    H8
  1066  1063  1082  1083   9   0.00   0.00000   0 ;     C5-    C2-    O5-    C7
  1066  1063  1082  1083   9   0.00   0.66944   2 ;     C5-    C2-    O5-    C7
  1066  1063  1082  1083   9   0.00   1.00416   3 ;     C5-    C2-    O5-    C7
  1066  1065  1062  1068   9   0.00   0.33472   3 ;     C5-    C4-    C1-    H3
  1066  1065  1072  1073   9   0.00   0.00000   0 ;     C5-    C4-    O1-    H7
  1067  1063  1066  1070   9   0.00   0.65084   3 ;     H2-    C2-    C5-    H5
  1067  1063  1066  1074   9   0.00   0.65084   3 ;     H2-    C2-    C5-    O2
  1067  1063  1082  1083   9   0.00   1.60387   3 ;     H2-    C2-    O5-    C7
  1068  1062  1064  1071   9   0.00   0.65084   3 ;     H3-    C1-    C3-    H6
  1068  1062  1064  1076   9   0.00   0.00000   0 ;     H3-    C1-    C3-    O3
  1068  1062  1064  1076   9   0.00   1.04600   1 ;     H3-    C1-    C3-    O3
  1068  1062  1064  1077   9   0.00   0.33472   3 ;     H3-    C1-    C3-    C6
  1068  1062  1065  1069   9   0.00   0.65084   3 ;     H3-    C1-    C4-    H4
  1068  1062  1065  1072   9   0.00   0.75312   3 ;     H3-    C1-    C4-    O1
  1068  1062  1065  1072   9   0.00   2.13384   1 ;     H3-    C1-    C4-    O1
  1069  1065  1066  1070   9   0.00   0.65084   3 ;     H4-    C4-    C5-    H5
  1069  1065  1066  1074   9   0.00   0.00000   0 ;     H4-    C4-    C5-    O2
  1069  1065  1066  1074   9   0.00   1.04600   1 ;     H4-    C4-    C5-    O2
  1069  1065  1072  1073   9   0.00   0.47279   3 ;     H4-    C4-    O1-    H7
  1070  1066  1063  1076   9   0.00   0.00000   0 ;     H5-    C5-    C2-    O3
  1070  1066  1063  1076   9   0.00   1.04600   1 ;     H5-    C5-    C2-    O3
  1070  1066  1063  1082   9   0.00   0.00000   0 ;     H5-    C5-    C2-    O5
  1070  1066  1063  1082   9   0.00   1.04600   1 ;     H5-    C5-    C2-    O5
  1070  1066  1065  1072   9   0.00   0.00000   0 ;     H5-    C5-    C4-    O1
  1070  1066  1065  1072   9   0.00   1.04600   1 ;     H5-    C5-    C4-    O1
  1070  1066  1074  1075   9   0.00   0.47279   3 ;     H5-    C5-    O2-    H8
  1071  1064  1077  1078   9   0.00   0.65084   3 ;     H6-    C3-    C6-    H9
  1071  1064  1077  1079   9   0.00   0.65084   3 ;     H6-    C3-    C6-   H10
  1071  1064  1077  1080   9   0.00   0.00000   0 ;     H6-    C3-    C6-    O4
  1071  1064  1077  1080   9   0.00   1.04600   1 ;     H6-    C3-    C6-    O4
  1072  1065  1066  1074   9   0.00   3.76560   3 ;     O1-    C4-    C5-    O2
  1072  1065  1066  1074   9   0.00   4.72792   2 ;     O1-    C4-    C5-    O2
  1074  1066  1063  1076   9   0.00   0.00000   0 ;     O2-    C5-    C2-    O3
  1074  1066  1063  1076   9   0.00   4.22584   3 ;     O2-    C5-    C2-    O3
  1074  1066  1063  1076   9   180.00   0.08368   1 ;     O2-    C5-    C2-    O3
  1074  1066  1063  1082   9   0.00   0.00000   0 ;     O2-    C5-    C2-    O5
  1074  1066  1063  1082   9   0.00   4.22584   3 ;     O2-    C5-    C2-    O5
  1074  1066  1063  1082   9   180.00   0.08368   1 ;     O2-    C5-    C2-    O5
  1076  1063  1082  1083   9   0.00   5.18816   2 ;     O3-    C2-    O5-    C7
  1076  1063  1082  1083   9   180.00   0.00000   3 ;     O3-    C2-    O5-    C7
  1076  1063  1082  1083   9   180.00   4.05848   1 ;     O3-    C2-    O5-    C7
  1076  1064  1077  1078   9   0.00   0.00000   0 ;     O3-    C3-    C6-    H9
  1076  1064  1077  1078   9   0.00   1.04600   1 ;     O3-    C3-    C6-    H9
  1076  1064  1077  1079   9   0.00   0.00000   0 ;     O3-    C3-    C6-   H10
  1076  1064  1077  1079   9   0.00   1.04600   1 ;     O3-    C3-    C6-   H10
  1076  1064  1077  1080   9   0.00   0.00000   0 ;     O3-    C3-    C6-    O4
  1076  1064  1077  1080   9   0.00   4.22584   3 ;     O3-    C3-    C6-    O4
  1076  1064  1077  1080   9   180.00   0.08368   1 ;     O3-    C3-    C6-    O4
  1078  1077  1080  1081   9   0.00   0.47279   3 ;     H9-    C6-    O4-   H11
  1079  1077  1080  1081   9   0.00   0.47279   3 ;    H10-    C6-    O4-   H11
  1082  1083  1085  1084   9   0.00   0.65084   3 ;     O5-    C7-    C9-    C8
  1082  1083  1085  1088   9   0.00   0.00000   0 ;     O5-    C7-    C9-   H12
  1082  1083  1085  1088   9   0.00   1.04600   1 ;     O5-    C7-    C9-   H12
  1082  1083  1085  1101   9   0.00   0.00000   0 ;     O5-    C7-    C9-    O9
  1082  1083  1085  1101   9   0.00   4.22584   3 ;     O5-    C7-    C9-    O9
  1082  1083  1085  1101   9   180.00   0.08368   1 ;     O5-    C7-    C9-    O9
  1082  1083  1086  1090   9   0.00   0.00000   0 ;     O5-    C7-   C10-   H14
  1082  1083  1086  1090   9   0.00   1.04600   1 ;     O5-    C7-   C10-   H14
  1082  1083  1086  1093   9   0.00   0.00000   0 ;     O5-    C7-   C10-    O6
  1082  1083  1086  1093   9   180.00   0.00000   2 ;     O5-    C7-   C10-    O6
  1082  1083  1086  1093   9   180.00   0.71128   1 ;     O5-    C7-   C10-    O6
  1082  1083  1086  1094   9   0.00   0.65084   3 ;     O5-    C7-   C10-   C12
  1083  1085  1084  1087   9   0.00   0.46024   1 ;     C7-    C9-    C8-   C11
  1083  1085  1084  1087   9   0.00   0.54392   3 ;     C7-    C9-    C8-   C11
  1083  1085  1084  1087   9   180.00   1.21336   2 ;     C7-    C9-    C8-   C11
  1083  1085  1084  1089   9   0.00   0.65084   3 ;     C7-    C9-    C8-   H13
  1083  1085  1084  1099   9   0.00   0.87864   3 ;     C7-    C9-    C8-    O8
  1083  1085  1101  1102   9   0.00   0.00000   0 ;     C7-    C9-    O9-   H21
  1083  1086  1093  1087   9   0.00   0.00000   0 ;     C7-   C10-    O6-   C11
  1083  1086  1093  1087   9   0.00   0.66944   2 ;     C7-   C10-    O6-   C11
  1083  1086  1093  1087   9   0.00   1.00416   3 ;     C7-   C10-    O6-   C11
  1083  1086  1094  1095   9   0.00   0.65084   3 ;     C7-   C10-   C12-   H17
  1083  1086  1094  1096   9   0.00   0.65084   3 ;     C7-   C10-   C12-   H18
  1083  1086  1094  1097   9   0.00   0.87864   3 ;     C7-   C10-   C12-    O7
  1084  1085  1083  1086   9   0.00   0.46024   1 ;     C8-    C9-    C7-   C10
  1084  1085  1083  1086   9   0.00   0.54392   3 ;     C8-    C9-    C7-   C10
  1084  1085  1083  1086   9   180.00   1.21336   2 ;     C8-    C9-    C7-   C10
  1084  1085  1083  1092   9   0.00   0.65084   3 ;     C8-    C9-    C7-   H16
  1084  1085  1101  1102   9   0.00   0.00000   0 ;     C8-    C9-    O9-   H21
  1084  1087  1093  1086   9   0.00   0.00000   0 ;     C8-   C11-    O6-   C10
  1084  1087  1093  1086   9   0.00   0.66944   2 ;     C8-   C11-    O6-   C10
  1084  1087  1093  1086   9   0.00   1.00416   3 ;     C8-   C11-    O6-   C10
  1084  1087  1103  1104   9   0.00   0.00000   0 ;     C8-   C11-   O10-   C13
  1084  1087  1103  1104   9   0.00   0.66944   2 ;     C8-   C11-   O10-   C13
  1084  1087  1103  1104   9   0.00   1.00416   3 ;     C8-   C11-   O10-   C13
  1085  1083  1086  1090   9   0.00   0.65084   3 ;     C9-    C7-   C10-   H14
  1085  1083  1086  1093   9   0.00   0.65084   3 ;     C9-    C7-   C10-    O6
  1085  1083  1086  1094   9   0.00   0.46024   1 ;     C9-    C7-   C10-   C12
  1085  1083  1086  1094   9   0.00   0.54392   3 ;     C9-    C7-   C10-   C12
  1085  1083  1086  1094   9   180.00   1.21336   2 ;     C9-    C7-   C10-   C12
  1085  1084  1087  1091   9   0.00   0.65084   3 ;     C9-    C8-   C11-   H15
  1085  1084  1087  1093   9   0.00   0.65084   3 ;     C9-    C8-   C11-    O6
  1085  1084  1087  1103   9   0.00   0.65084   3 ;     C9-    C8-   C11-   O10
  1085  1084  1099  1100   9   0.00   0.00000   0 ;     C9-    C8-    O8-   H20
  1086  1083  1085  1088   9   0.00   0.65084   3 ;    C10-    C7-    C9-   H12
  1086  1083  1085  1101   9   0.00   0.87864   3 ;    C10-    C7-    C9-    O9
  1086  1093  1087  1091   9   0.00   1.60387   3 ;    C10-    O6-   C11-   H15
  1086  1093  1087  1103   9   0.00   5.18816   2 ;    C10-    O6-   C11-   O10
  1086  1093  1087  1103   9   180.00   0.00000   3 ;    C10-    O6-   C11-   O10
  1086  1093  1087  1103   9   180.00   4.05848   1 ;    C10-    O6-   C11-   O10
  1086  1094  1097  1098   9   0.00   0.00000   0 ;    C10-   C12-    O7-   H19
  1087  1084  1085  1088   9   0.00   0.65084   3 ;    C11-    C8-    C9-   H12
  1087  1084  1085  1101   9   0.00   0.87864   3 ;    C11-    C8-    C9-    O9
  1087  1084  1099  1100   9   0.00   0.00000   0 ;    C11-    C8-    O8-   H20
  1087  1093  1086  1090   9   0.00   1.41001   3 ;    C11-    O6-   C10-   H14
  1087  1093  1086  1094   9   0.00   0.00000   0 ;    C11-    O6-   C10-   C12
  1087  1093  1086  1094   9   0.00   0.66944   2 ;    C11-    O6-   C10-   C12
  1087  1093  1086  1094   9   0.00   1.00416   3 ;    C11-    O6-   C10-   C12
  1087  1103  1104  1106   9   0.00   0.00000   0 ;    C11-   O10-   C13-   C15
  1087  1103  1104  1106   9   0.00   0.66944   2 ;    C11-   O10-   C13-   C15
  1087  1103  1104  1106   9   0.00   1.00416   3 ;    C11-   O10-   C13-   C15
  1087  1103  1104  1107   9   0.00   0.00000   0 ;    C11-   O10-   C13-   C16
  1087  1103  1104  1107   9   0.00   0.66944   2 ;    C11-   O10-   C13-   C16
  1087  1103  1104  1107   9   0.00   1.00416   3 ;    C11-   O10-   C13-   C16
  1087  1103  1104  1110   9   0.00   1.41001   3 ;    C11-   O10-   C13-   H23
  1088  1085  1083  1092   9   0.00   0.65084   3 ;    H12-    C9-    C7-   H16
  1088  1085  1084  1089   9   0.00   0.65084   3 ;    H12-    C9-    C8-   H13
  1088  1085  1084  1099   9   0.00   0.00000   0 ;    H12-    C9-    C8-    O8
  1088  1085  1084  1099   9   0.00   1.04600   1 ;    H12-    C9-    C8-    O8
  1088  1085  1101  1102   9   0.00   0.47279   3 ;    H12-    C9-    O9-   H21
  1089  1084  1085  1101   9   0.00   0.00000   0 ;    H13-    C8-    C9-    O9
  1089  1084  1085  1101   9   0.00   1.04600   1 ;    H13-    C8-    C9-    O9
  1089  1084  1087  1091   9   0.00   0.65084   3 ;    H13-    C8-   C11-   H15
  1089  1084  1087  1093   9   0.00   0.00000   0 ;    H13-    C8-   C11-    O6
  1089  1084  1087  1093   9   0.00   1.04600   1 ;    H13-    C8-   C11-    O6
  1089  1084  1087  1103   9   0.00   0.00000   0 ;    H13-    C8-   C11-   O10
  1089  1084  1087  1103   9   0.00   1.04600   1 ;    H13-    C8-   C11-   O10
  1089  1084  1099  1100   9   0.00   0.47279   3 ;    H13-    C8-    O8-   H20
  1090  1086  1083  1092   9   0.00   0.65084   3 ;    H14-   C10-    C7-   H16
  1090  1086  1094  1095   9   0.00   0.65084   3 ;    H14-   C10-   C12-   H17
  1090  1086  1094  1096   9   0.00   0.65084   3 ;    H14-   C10-   C12-   H18
  1090  1086  1094  1097   9   0.00   0.00000   0 ;    H14-   C10-   C12-    O7
  1090  1086  1094  1097   9   0.00   1.04600   1 ;    H14-   C10-   C12-    O7
  1091  1087  1084  1099   9   0.00   0.65084   3 ;    H15-   C11-    C8-    O8
  1091  1087  1103  1104   9   0.00   1.60387   3 ;    H15-   C11-   O10-   C13
  1092  1083  1085  1101   9   0.00   0.00000   0 ;    H16-    C7-    C9-    O9
  1092  1083  1085  1101   9   0.00   1.04600   1 ;    H16-    C7-    C9-    O9
  1092  1083  1086  1093   9   0.00   0.00000   0 ;    H16-    C7-   C10-    O6
  1092  1083  1086  1093   9   0.00   1.04600   1 ;    H16-    C7-   C10-    O6
  1092  1083  1086  1094   9   0.00   0.65084   3 ;    H16-    C7-   C10-   C12
  1093  1086  1094  1095   9   0.00   0.00000   0 ;     O6-   C10-   C12-   H17
  1093  1086  1094  1095   9   0.00   1.04600   1 ;     O6-   C10-   C12-   H17
  1093  1086  1094  1096   9   0.00   0.00000   0 ;     O6-   C10-   C12-   H18
  1093  1086  1094  1096   9   0.00   1.04600   1 ;     O6-   C10-   C12-   H18
  1093  1086  1094  1097   9   0.00   0.00000   0 ;     O6-   C10-   C12-    O7
  1093  1086  1094  1097   9   0.00   4.22584   3 ;     O6-   C10-   C12-    O7
  1093  1086  1094  1097   9   180.00   0.08368   1 ;     O6-   C10-   C12-    O7
  1093  1087  1084  1099   9   0.00   0.00000   0 ;     O6-   C11-    C8-    O8
  1093  1087  1084  1099   9   0.00   4.22584   3 ;     O6-   C11-    C8-    O8
  1093  1087  1084  1099   9   180.00   0.08368   1 ;     O6-   C11-    C8-    O8
  1093  1087  1103  1104   9   0.00   5.18816   2 ;     O6-   C11-   O10-   C13
  1093  1087  1103  1104   9   180.00   0.00000   3 ;     O6-   C11-   O10-   C13
  1093  1087  1103  1104   9   180.00   4.05848   1 ;     O6-   C11-   O10-   C13
  1095  1094  1097  1098   9   0.00   0.47279   3 ;    H17-   C12-    O7-   H19
  1096  1094  1097  1098   9   0.00   0.47279   3 ;    H18-   C12-    O7-   H19
  1099  1084  1085  1101   9   0.00   3.76560   3 ;     O8-    C8-    C9-    O9
  1099  1084  1085  1101   9   0.00   4.72792   2 ;     O8-    C8-    C9-    O9
  1099  1084  1087  1103   9   0.00   0.00000   0 ;     O8-    C8-   C11-   O10
  1099  1084  1087  1103   9   0.00   4.22584   3 ;     O8-    C8-   C11-   O10
  1099  1084  1087  1103   9   180.00   0.08368   1 ;     O8-    C8-   C11-   O10
  1103  1104  1106  1113   9   0.00   0.00000   0 ;    O10-   C13-   C15-   H26
  1103  1104  1106  1113   9   0.00   1.04600   1 ;    O10-   C13-   C15-   H26
  1103  1104  1106  1118   9   0.00   0.00000   0 ;    O10-   C13-   C15-   O13
  1103  1104  1106  1118   9   180.00   0.00000   2 ;    O10-   C13-   C15-   O13
  1103  1104  1106  1118   9   180.00   0.71128   1 ;    O10-   C13-   C15-   O13
  1103  1104  1106  1119   9   0.00   0.65084   3 ;    O10-   C13-   C15-   C18
  1103  1104  1107  1108   9   0.00   0.65084   3 ;    O10-   C13-   C16-   C17
  1103  1104  1107  1111   9   0.00   0.00000   0 ;    O10-   C13-   C16-   H24
  1103  1104  1107  1111   9   0.00   1.04600   1 ;    O10-   C13-   C16-   H24
  1103  1104  1107  1114   9   0.00   0.00000   0 ;    O10-   C13-   C16-   O11
  1103  1104  1107  1114   9   0.00   4.22584   3 ;    O10-   C13-   C16-   O11
  1103  1104  1107  1114   9   180.00   0.08368   1 ;    O10-   C13-   C16-   O11
  1104  1106  1118  1105   9   0.00   0.00000   0 ;    C13-   C15-   O13-   C14
  1104  1106  1118  1105   9   0.00   0.66944   2 ;    C13-   C15-   O13-   C14
  1104  1106  1118  1105   9   0.00   1.00416   3 ;    C13-   C15-   O13-   C14
  1104  1106  1119  1120   9   0.00   0.65084   3 ;    C13-   C15-   C18-   H29
  1104  1106  1119  1121   9   0.00   0.65084   3 ;    C13-   C15-   C18-   H30
  1104  1106  1119  1122   9   0.00   0.87864   3 ;    C13-   C15-   C18-   O14
  1104  1107  1108  1105   9   0.00   0.46024   1 ;    C13-   C16-   C17-   C14
  1104  1107  1108  1105   9   0.00   0.54392   3 ;    C13-   C16-   C17-   C14
  1104  1107  1108  1105   9   180.00   1.21336   2 ;    C13-   C16-   C17-   C14
  1104  1107  1108  1112   9   0.00   0.65084   3 ;    C13-   C16-   C17-   H25
  1104  1107  1108  1116   9   0.00   0.87864   3 ;    C13-   C16-   C17-   O12
  1104  1107  1114  1115   9   0.00   0.00000   0 ;    C13-   C16-   O11-   H27
  1105  1108  1107  1111   9   0.00   0.65084   3 ;    C14-   C17-   C16-   H24
  1105  1108  1107  1114   9   0.00   0.87864   3 ;    C14-   C17-   C16-   O11
  1105  1108  1116  1117   9   0.00   0.00000   0 ;    C14-   C17-   O12-   H28
  1105  1118  1106  1113   9   0.00   1.41001   3 ;    C14-   O13-   C15-   H26
  1105  1118  1106  1119   9   0.00   0.00000   0 ;    C14-   O13-   C15-   C18
  1105  1118  1106  1119   9   0.00   0.66944   2 ;    C14-   O13-   C15-   C18
  1105  1118  1106  1119   9   0.00   1.00416   3 ;    C14-   O13-   C15-   C18
  1105  1124  1125  1127   9   0.00   0.00000   0 ;    C14-   O15-   C19-   C21
  1105  1124  1125  1127   9   0.00   0.66944   2 ;    C14-   O15-   C19-   C21
  1105  1124  1125  1127   9   0.00   1.00416   3 ;    C14-   O15-   C19-   C21
  1105  1124  1125  1128   9   0.00   0.00000   0 ;    C14-   O15-   C19-   C22
  1105  1124  1125  1128   9   0.00   0.66944   2 ;    C14-   O15-   C19-   C22
  1105  1124  1125  1128   9   0.00   1.00416   3 ;    C14-   O15-   C19-   C22
  1105  1124  1125  1134   9   0.00   1.41001   3 ;    C14-   O15-   C19-   H36
  1106  1104  1107  1108   9   0.00   0.46024   1 ;    C15-   C13-   C16-   C17
  1106  1104  1107  1108   9   0.00   0.54392   3 ;    C15-   C13-   C16-   C17
  1106  1104  1107  1108   9   180.00   1.21336   2 ;    C15-   C13-   C16-   C17
  1106  1104  1107  1111   9   0.00   0.65084   3 ;    C15-   C13-   C16-   H24
  1106  1104  1107  1114   9   0.00   0.87864   3 ;    C15-   C13-   C16-   O11
  1106  1118  1105  1108   9   0.00   0.00000   0 ;    C15-   O13-   C14-   C17
  1106  1118  1105  1108   9   0.00   0.66944   2 ;    C15-   O13-   C14-   C17
  1106  1118  1105  1108   9   0.00   1.00416   3 ;    C15-   O13-   C14-   C17
  1106  1118  1105  1109   9   0.00   1.60387   3 ;    C15-   O13-   C14-   H22
  1106  1118  1105  1124   9   0.00   5.18816   2 ;    C15-   O13-   C14-   O15
  1106  1118  1105  1124   9   180.00   0.00000   3 ;    C15-   O13-   C14-   O15
  1106  1118  1105  1124   9   180.00   4.05848   1 ;    C15-   O13-   C14-   O15
  1106  1119  1122  1123   9   0.00   0.00000   0 ;    C15-   C18-   O14-   H31
  1107  1104  1106  1113   9   0.00   0.65084   3 ;    C16-   C13-   C15-   H26
  1107  1104  1106  1118   9   0.00   0.65084   3 ;    C16-   C13-   C15-   O13
  1107  1104  1106  1119   9   0.00   0.46024   1 ;    C16-   C13-   C15-   C18
  1107  1104  1106  1119   9   0.00   0.54392   3 ;    C16-   C13-   C15-   C18
  1107  1104  1106  1119   9   180.00   1.21336   2 ;    C16-   C13-   C15-   C18
  1107  1108  1105  1109   9   0.00   0.65084   3 ;    C16-   C17-   C14-   H22
  1107  1108  1105  1118   9   0.00   0.65084   3 ;    C16-   C17-   C14-   O13
  1107  1108  1105  1124   9   0.00   0.65084   3 ;    C16-   C17-   C14-   O15
  1107  1108  1116  1117   9   0.00   0.00000   0 ;    C16-   C17-   O12-   H28
  1108  1105  1124  1125   9   0.00   0.00000   0 ;    C17-   C14-   O15-   C19
  1108  1105  1124  1125   9   0.00   0.66944   2 ;    C17-   C14-   O15-   C19
  1108  1105  1124  1125   9   0.00   1.00416   3 ;    C17-   C14-   O15-   C19
  1108  1107  1104  1110   9   0.00   0.65084   3 ;    C17-   C16-   C13-   H23
  1108  1107  1114  1115   9   0.00   0.00000   0 ;    C17-   C16-   O11-   H27
  1109  1105  1108  1112   9   0.00   0.65084   3 ;    H22-   C14-   C17-   H25
  1109  1105  1108  1116   9   0.00   0.65084   3 ;    H22-   C14-   C17-   O12
  1109  1105  1124  1125   9   0.00   1.60387   3 ;    H22-   C14-   O15-   C19
  1110  1104  1106  1113   9   0.00   0.65084   3 ;    H23-   C13-   C15-   H26
  1110  1104  1106  1118   9   0.00   0.00000   0 ;    H23-   C13-   C15-   O13
  1110  1104  1106  1118   9   0.00   1.04600   1 ;    H23-   C13-   C15-   O13
  1110  1104  1106  1119   9   0.00   0.65084   3 ;    H23-   C13-   C15-   C18
  1110  1104  1107  1111   9   0.00   0.65084   3 ;    H23-   C13-   C16-   H24
  1110  1104  1107  1114   9   0.00   0.00000   0 ;    H23-   C13-   C16-   O11
  1110  1104  1107  1114   9   0.00   1.04600   1 ;    H23-   C13-   C16-   O11
  1111  1107  1108  1112   9   0.00   0.65084   3 ;    H24-   C16-   C17-   H25
  1111  1107  1108  1116   9   0.00   0.00000   0 ;    H24-   C16-   C17-   O12
  1111  1107  1108  1116   9   0.00   1.04600   1 ;    H24-   C16-   C17-   O12
  1111  1107  1114  1115   9   0.00   0.47279   3 ;    H24-   C16-   O11-   H27
  1112  1108  1105  1118   9   0.00   0.00000   0 ;    H25-   C17-   C14-   O13
  1112  1108  1105  1118   9   0.00   1.04600   1 ;    H25-   C17-   C14-   O13
  1112  1108  1105  1124   9   0.00   0.00000   0 ;    H25-   C17-   C14-   O15
  1112  1108  1105  1124   9   0.00   1.04600   1 ;    H25-   C17-   C14-   O15
  1112  1108  1107  1114   9   0.00   0.00000   0 ;    H25-   C17-   C16-   O11
  1112  1108  1107  1114   9   0.00   1.04600   1 ;    H25-   C17-   C16-   O11
  1112  1108  1116  1117   9   0.00   0.47279   3 ;    H25-   C17-   O12-   H28
  1113  1106  1119  1120   9   0.00   0.65084   3 ;    H26-   C15-   C18-   H29
  1113  1106  1119  1121   9   0.00   0.65084   3 ;    H26-   C15-   C18-   H30
  1113  1106  1119  1122   9   0.00   0.00000   0 ;    H26-   C15-   C18-   O14
  1113  1106  1119  1122   9   0.00   1.04600   1 ;    H26-   C15-   C18-   O14
  1114  1107  1108  1116   9   0.00   3.76560   3 ;    O11-   C16-   C17-   O12
  1114  1107  1108  1116   9   0.00   4.72792   2 ;    O11-   C16-   C17-   O12
  1116  1108  1105  1118   9   0.00   0.00000   0 ;    O12-   C17-   C14-   O13
  1116  1108  1105  1118   9   0.00   4.22584   3 ;    O12-   C17-   C14-   O13
  1116  1108  1105  1118   9   180.00   0.08368   1 ;    O12-   C17-   C14-   O13
  1116  1108  1105  1124   9   0.00   0.00000   0 ;    O12-   C17-   C14-   O15
  1116  1108  1105  1124   9   0.00   4.22584   3 ;    O12-   C17-   C14-   O15
  1116  1108  1105  1124   9   180.00   0.08368   1 ;    O12-   C17-   C14-   O15
  1118  1105  1124  1125   9   0.00   5.18816   2 ;    O13-   C14-   O15-   C19
  1118  1105  1124  1125   9   180.00   0.00000   3 ;    O13-   C14-   O15-   C19
  1118  1105  1124  1125   9   180.00   4.05848   1 ;    O13-   C14-   O15-   C19
  1118  1106  1119  1120   9   0.00   0.00000   0 ;    O13-   C15-   C18-   H29
  1118  1106  1119  1120   9   0.00   1.04600   1 ;    O13-   C15-   C18-   H29
  1118  1106  1119  1121   9   0.00   0.00000   0 ;    O13-   C15-   C18-   H30
  1118  1106  1119  1121   9   0.00   1.04600   1 ;    O13-   C15-   C18-   H30
  1118  1106  1119  1122   9   0.00   0.00000   0 ;    O13-   C15-   C18-   O14
  1118  1106  1119  1122   9   0.00   4.22584   3 ;    O13-   C15-   C18-   O14
  1118  1106  1119  1122   9   180.00   0.08368   1 ;    O13-   C15-   C18-   O14
  1120  1119  1122  1123   9   0.00   0.47279   3 ;    H29-   C18-   O14-   H31
  1121  1119  1122  1123   9   0.00   0.47279   3 ;    H30-   C18-   O14-   H31
  1124  1125  1127  1126   9   0.00   0.65084   3 ;    O15-   C19-   C21-   C20
  1124  1125  1127  1130   9   0.00   0.00000   0 ;    O15-   C19-   C21-   H32
  1124  1125  1127  1130   9   0.00   1.04600   1 ;    O15-   C19-   C21-   H32
  1124  1125  1127  1143   9   0.00   0.00000   0 ;    O15-   C19-   C21-   O19
  1124  1125  1127  1143   9   0.00   4.22584   3 ;    O15-   C19-   C21-   O19
  1124  1125  1127  1143   9   180.00   0.08368   1 ;    O15-   C19-   C21-   O19
  1124  1125  1128  1132   9   0.00   0.00000   0 ;    O15-   C19-   C22-   H34
  1124  1125  1128  1132   9   0.00   1.04600   1 ;    O15-   C19-   C22-   H34
  1124  1125  1128  1135   9   0.00   0.00000   0 ;    O15-   C19-   C22-   O16
  1124  1125  1128  1135   9   180.00   0.00000   2 ;    O15-   C19-   C22-   O16
  1124  1125  1128  1135   9   180.00   0.71128   1 ;    O15-   C19-   C22-   O16
  1124  1125  1128  1136   9   0.00   0.65084   3 ;    O15-   C19-   C22-   C24
  1125  1127  1126  1129   9   0.00   0.46024   1 ;    C19-   C21-   C20-   C23
  1125  1127  1126  1129   9   0.00   0.54392   3 ;    C19-   C21-   C20-   C23
  1125  1127  1126  1129   9   180.00   1.21336   2 ;    C19-   C21-   C20-   C23
  1125  1127  1126  1131   9   0.00   0.65084   3 ;    C19-   C21-   C20-   H33
  1125  1127  1126  1141   9   0.00   0.87864   3 ;    C19-   C21-   C20-   O18
  1125  1127  1143  1144   9   0.00   0.00000   0 ;    C19-   C21-   O19-   H41
  1125  1128  1135  1129   9   0.00   0.00000   0 ;    C19-   C22-   O16-   C23
  1125  1128  1135  1129   9   0.00   0.66944   2 ;    C19-   C22-   O16-   C23
  1125  1128  1135  1129   9   0.00   1.00416   3 ;    C19-   C22-   O16-   C23
  1125  1128  1136  1137   9   0.00   0.65084   3 ;    C19-   C22-   C24-   H37
  1125  1128  1136  1138   9   0.00   0.65084   3 ;    C19-   C22-   C24-   H38
  1125  1128  1136  1139   9   0.00   0.87864   3 ;    C19-   C22-   C24-   O17
  1126  1127  1125  1128   9   0.00   0.46024   1 ;    C20-   C21-   C19-   C22
  1126  1127  1125  1128   9   0.00   0.54392   3 ;    C20-   C21-   C19-   C22
  1126  1127  1125  1128   9   180.00   1.21336   2 ;    C20-   C21-   C19-   C22
  1126  1127  1125  1134   9   0.00   0.65084   3 ;    C20-   C21-   C19-   H36
  1126  1127  1143  1144   9   0.00   0.00000   0 ;    C20-   C21-   O19-   H41
  1126  1129  1135  1128   9   0.00   0.00000   0 ;    C20-   C23-   O16-   C22
  1126  1129  1135  1128   9   0.00   0.66944   2 ;    C20-   C23-   O16-   C22
  1126  1129  1135  1128   9   0.00   1.00416   3 ;    C20-   C23-   O16-   C22
  1126  1129  1145  1146   9   0.00   0.00000   0 ;    C20-   C23-   O20-   C25
  1126  1129  1145  1146   9   0.00   0.66944   2 ;    C20-   C23-   O20-   C25
  1126  1129  1145  1146   9   0.00   1.00416   3 ;    C20-   C23-   O20-   C25
  1127  1125  1128  1132   9   0.00   0.65084   3 ;    C21-   C19-   C22-   H34
  1127  1125  1128  1135   9   0.00   0.65084   3 ;    C21-   C19-   C22-   O16
  1127  1125  1128  1136   9   0.00   0.46024   1 ;    C21-   C19-   C22-   C24
  1127  1125  1128  1136   9   0.00   0.54392   3 ;    C21-   C19-   C22-   C24
  1127  1125  1128  1136   9   180.00   1.21336   2 ;    C21-   C19-   C22-   C24
  1127  1126  1129  1133   9   0.00   0.65084   3 ;    C21-   C20-   C23-   H35
  1127  1126  1129  1135   9   0.00   0.65084   3 ;    C21-   C20-   C23-   O16
  1127  1126  1129  1145   9   0.00   0.65084   3 ;    C21-   C20-   C23-   O20
  1127  1126  1141  1142   9   0.00   0.00000   0 ;    C21-   C20-   O18-   H40
  1128  1125  1127  1130   9   0.00   0.65084   3 ;    C22-   C19-   C21-   H32
  1128  1125  1127  1143   9   0.00   0.87864   3 ;    C22-   C19-   C21-   O19
  1128  1135  1129  1133   9   0.00   1.60387   3 ;    C22-   O16-   C23-   H35
  1128  1135  1129  1145   9   0.00   5.18816   2 ;    C22-   O16-   C23-   O20
  1128  1135  1129  1145   9   180.00   0.00000   3 ;    C22-   O16-   C23-   O20
  1128  1135  1129  1145   9   180.00   4.05848   1 ;    C22-   O16-   C23-   O20
  1128  1136  1139  1140   9   0.00   0.00000   0 ;    C22-   C24-   O17-   H39
  1129  1126  1127  1130   9   0.00   0.65084   3 ;    C23-   C20-   C21-   H32
  1129  1126  1127  1143   9   0.00   0.87864   3 ;    C23-   C20-   C21-   O19
  1129  1126  1141  1142   9   0.00   0.00000   0 ;    C23-   C20-   O18-   H40
  1129  1135  1128  1132   9   0.00   1.41001   3 ;    C23-   O16-   C22-   H34
  1129  1135  1128  1136   9   0.00   0.00000   0 ;    C23-   O16-   C22-   C24
  1129  1135  1128  1136   9   0.00   0.66944   2 ;    C23-   O16-   C22-   C24
  1129  1135  1128  1136   9   0.00   1.00416   3 ;    C23-   O16-   C22-   C24
  1129  1145  1146  1148   9   0.00   0.00000   0 ;    C23-   O20-   C25-   C27
  1129  1145  1146  1148   9   0.00   0.66944   2 ;    C23-   O20-   C25-   C27
  1129  1145  1146  1148   9   0.00   1.00416   3 ;    C23-   O20-   C25-   C27
  1129  1145  1146  1149   9   0.00   0.00000   0 ;    C23-   O20-   C25-   C28
  1129  1145  1146  1149   9   0.00   0.66944   2 ;    C23-   O20-   C25-   C28
  1129  1145  1146  1149   9   0.00   1.00416   3 ;    C23-   O20-   C25-   C28
  1129  1145  1146  1152   9   0.00   1.41001   3 ;    C23-   O20-   C25-   H43
  1130  1127  1125  1134   9   0.00   0.65084   3 ;    H32-   C21-   C19-   H36
  1130  1127  1126  1131   9   0.00   0.65084   3 ;    H32-   C21-   C20-   H33
  1130  1127  1126  1141   9   0.00   0.00000   0 ;    H32-   C21-   C20-   O18
  1130  1127  1126  1141   9   0.00   1.04600   1 ;    H32-   C21-   C20-   O18
  1130  1127  1143  1144   9   0.00   0.47279   3 ;    H32-   C21-   O19-   H41
  1131  1126  1127  1143   9   0.00   0.00000   0 ;    H33-   C20-   C21-   O19
  1131  1126  1127  1143   9   0.00   1.04600   1 ;    H33-   C20-   C21-   O19
  1131  1126  1129  1133   9   0.00   0.65084   3 ;    H33-   C20-   C23-   H35
  1131  1126  1129  1135   9   0.00   0.00000   0 ;    H33-   C20-   C23-   O16
  1131  1126  1129  1135   9   0.00   1.04600   1 ;    H33-   C20-   C23-   O16
  1131  1126  1129  1145   9   0.00   0.00000   0 ;    H33-   C20-   C23-   O20
  1131  1126  1129  1145   9   0.00   1.04600   1 ;    H33-   C20-   C23-   O20
  1131  1126  1141  1142   9   0.00   0.47279   3 ;    H33-   C20-   O18-   H40
  1132  1128  1125  1134   9   0.00   0.65084   3 ;    H34-   C22-   C19-   H36
  1132  1128  1136  1137   9   0.00   0.65084   3 ;    H34-   C22-   C24-   H37
  1132  1128  1136  1138   9   0.00   0.65084   3 ;    H34-   C22-   C24-   H38
  1132  1128  1136  1139   9   0.00   0.00000   0 ;    H34-   C22-   C24-   O17
  1132  1128  1136  1139   9   0.00   1.04600   1 ;    H34-   C22-   C24-   O17
  1133  1129  1126  1141   9   0.00   0.65084   3 ;    H35-   C23-   C20-   O18
  1133  1129  1145  1146   9   0.00   1.60387   3 ;    H35-   C23-   O20-   C25
  1134  1125  1127  1143   9   0.00   0.00000   0 ;    H36-   C19-   C21-   O19
  1134  1125  1127  1143   9   0.00   1.04600   1 ;    H36-   C19-   C21-   O19
  1134  1125  1128  1135   9   0.00   0.00000   0 ;    H36-   C19-   C22-   O16
  1134  1125  1128  1135   9   0.00   1.04600   1 ;    H36-   C19-   C22-   O16
  1134  1125  1128  1136   9   0.00   0.65084   3 ;    H36-   C19-   C22-   C24
  1135  1128  1136  1137   9   0.00   0.00000   0 ;    O16-   C22-   C24-   H37
  1135  1128  1136  1137   9   0.00   1.04600   1 ;    O16-   C22-   C24-   H37
  1135  1128  1136  1138   9   0.00   0.00000   0 ;    O16-   C22-   C24-   H38
  1135  1128  1136  1138   9   0.00   1.04600   1 ;    O16-   C22-   C24-   H38
  1135  1128  1136  1139   9   0.00   0.00000   0 ;    O16-   C22-   C24-   O17
  1135  1128  1136  1139   9   0.00   4.22584   3 ;    O16-   C22-   C24-   O17
  1135  1128  1136  1139   9   180.00   0.08368   1 ;    O16-   C22-   C24-   O17
  1135  1129  1126  1141   9   0.00   0.00000   0 ;    O16-   C23-   C20-   O18
  1135  1129  1126  1141   9   0.00   4.22584   3 ;    O16-   C23-   C20-   O18
  1135  1129  1126  1141   9   180.00   0.08368   1 ;    O16-   C23-   C20-   O18
  1135  1129  1145  1146   9   0.00   5.18816   2 ;    O16-   C23-   O20-   C25
  1135  1129  1145  1146   9   180.00   0.00000   3 ;    O16-   C23-   O20-   C25
  1135  1129  1145  1146   9   180.00   4.05848   1 ;    O16-   C23-   O20-   C25
  1137  1136  1139  1140   9   0.00   0.47279   3 ;    H37-   C24-   O17-   H39
  1138  1136  1139  1140   9   0.00   0.47279   3 ;    H38-   C24-   O17-   H39
  1141  1126  1127  1143   9   0.00   3.76560   3 ;    O18-   C20-   C21-   O19
  1141  1126  1127  1143   9   0.00   4.72792   2 ;    O18-   C20-   C21-   O19
  1141  1126  1129  1145   9   0.00   0.00000   0 ;    O18-   C20-   C23-   O20
  1141  1126  1129  1145   9   0.00   4.22584   3 ;    O18-   C20-   C23-   O20
  1141  1126  1129  1145   9   180.00   0.08368   1 ;    O18-   C20-   C23-   O20
  1145  1146  1148  1155   9   0.00   0.00000   0 ;    O20-   C25-   C27-   H46
  1145  1146  1148  1155   9   0.00   1.04600   1 ;    O20-   C25-   C27-   H46
  1145  1146  1148  1160   9   0.00   0.00000   0 ;    O20-   C25-   C27-   O23
  1145  1146  1148  1160   9   180.00   0.00000   2 ;    O20-   C25-   C27-   O23
  1145  1146  1148  1160   9   180.00   0.71128   1 ;    O20-   C25-   C27-   O23
  1145  1146  1148  1161   9   0.00   0.65084   3 ;    O20-   C25-   C27-   C30
  1145  1146  1149  1150   9   0.00   0.65084   3 ;    O20-   C25-   C28-   C29
  1145  1146  1149  1153   9   0.00   0.00000   0 ;    O20-   C25-   C28-   H44
  1145  1146  1149  1153   9   0.00   1.04600   1 ;    O20-   C25-   C28-   H44
  1145  1146  1149  1156   9   0.00   0.00000   0 ;    O20-   C25-   C28-   O21
  1145  1146  1149  1156   9   0.00   4.22584   3 ;    O20-   C25-   C28-   O21
  1145  1146  1149  1156   9   180.00   0.08368   1 ;    O20-   C25-   C28-   O21
  1146  1148  1160  1147   9   0.00   0.00000   0 ;    C25-   C27-   O23-   C26
  1146  1148  1160  1147   9   0.00   0.66944   2 ;    C25-   C27-   O23-   C26
  1146  1148  1160  1147   9   0.00   1.00416   3 ;    C25-   C27-   O23-   C26
  1146  1148  1161  1162   9   0.00   0.65084   3 ;    C25-   C27-   C30-   H49
  1146  1148  1161  1163   9   0.00   0.65084   3 ;    C25-   C27-   C30-   H50
  1146  1148  1161  1164   9   0.00   0.87864   3 ;    C25-   C27-   C30-   O24
  1146  1149  1150  1147   9   0.00   0.46024   1 ;    C25-   C28-   C29-   C26
  1146  1149  1150  1147   9   0.00   0.54392   3 ;    C25-   C28-   C29-   C26
  1146  1149  1150  1147   9   180.00   1.21336   2 ;    C25-   C28-   C29-   C26
  1146  1149  1150  1154   9   0.00   0.65084   3 ;    C25-   C28-   C29-   H45
  1146  1149  1150  1158   9   0.00   0.87864   3 ;    C25-   C28-   C29-   O22
  1146  1149  1156  1157   9   0.00   0.00000   0 ;    C25-   C28-   O21-   H47
  1147  1150  1149  1153   9   0.00   0.65084   3 ;    C26-   C29-   C28-   H44
  1147  1150  1149  1156   9   0.00   0.87864   3 ;    C26-   C29-   C28-   O21
  1147  1150  1158  1159   9   0.00   0.00000   0 ;    C26-   C29-   O22-   H48
  1147  1160  1148  1155   9   0.00   1.41001   3 ;    C26-   O23-   C27-   H46
  1147  1160  1148  1161   9   0.00   0.00000   0 ;    C26-   O23-   C27-   C30
  1147  1160  1148  1161   9   0.00   0.66944   2 ;    C26-   O23-   C27-   C30
  1147  1160  1148  1161   9   0.00   1.00416   3 ;    C26-   O23-   C27-   C30
  1147  1166  1167  1169   9   0.00   0.00000   0 ;    C26-   O25-   C31-   C33
  1147  1166  1167  1169   9   0.00   0.66944   2 ;    C26-   O25-   C31-   C33
  1147  1166  1167  1169   9   0.00   1.00416   3 ;    C26-   O25-   C31-   C33
  1147  1166  1167  1170   9   0.00   0.00000   0 ;    C26-   O25-   C31-   C34
  1147  1166  1167  1170   9   0.00   0.66944   2 ;    C26-   O25-   C31-   C34
  1147  1166  1167  1170   9   0.00   1.00416   3 ;    C26-   O25-   C31-   C34
  1147  1166  1167  1176   9   0.00   1.41001   3 ;    C26-   O25-   C31-   H56
  1148  1146  1149  1150   9   0.00   0.46024   1 ;    C27-   C25-   C28-   C29
  1148  1146  1149  1150   9   0.00   0.54392   3 ;    C27-   C25-   C28-   C29
  1148  1146  1149  1150   9   180.00   1.21336   2 ;    C27-   C25-   C28-   C29
  1148  1146  1149  1153   9   0.00   0.65084   3 ;    C27-   C25-   C28-   H44
  1148  1146  1149  1156   9   0.00   0.87864   3 ;    C27-   C25-   C28-   O21
  1148  1160  1147  1150   9   0.00   0.00000   0 ;    C27-   O23-   C26-   C29
  1148  1160  1147  1150   9   0.00   0.66944   2 ;    C27-   O23-   C26-   C29
  1148  1160  1147  1150   9   0.00   1.00416   3 ;    C27-   O23-   C26-   C29
  1148  1160  1147  1151   9   0.00   1.60387   3 ;    C27-   O23-   C26-   H42
  1148  1160  1147  1166   9   0.00   5.18816   2 ;    C27-   O23-   C26-   O25
  1148  1160  1147  1166   9   180.00   0.00000   3 ;    C27-   O23-   C26-   O25
  1148  1160  1147  1166   9   180.00   4.05848   1 ;    C27-   O23-   C26-   O25
  1148  1161  1164  1165   9   0.00   0.00000   0 ;    C27-   C30-   O24-   H51
  1149  1146  1148  1155   9   0.00   0.65084   3 ;    C28-   C25-   C27-   H46
  1149  1146  1148  1160   9   0.00   0.65084   3 ;    C28-   C25-   C27-   O23
  1149  1146  1148  1161   9   0.00   0.46024   1 ;    C28-   C25-   C27-   C30
  1149  1146  1148  1161   9   0.00   0.54392   3 ;    C28-   C25-   C27-   C30
  1149  1146  1148  1161   9   180.00   1.21336   2 ;    C28-   C25-   C27-   C30
  1149  1150  1147  1151   9   0.00   0.65084   3 ;    C28-   C29-   C26-   H42
  1149  1150  1147  1160   9   0.00   0.65084   3 ;    C28-   C29-   C26-   O23
  1149  1150  1147  1166   9   0.00   0.65084   3 ;    C28-   C29-   C26-   O25
  1149  1150  1158  1159   9   0.00   0.00000   0 ;    C28-   C29-   O22-   H48
  1150  1147  1166  1167   9   0.00   0.00000   0 ;    C29-   C26-   O25-   C31
  1150  1147  1166  1167   9   0.00   0.66944   2 ;    C29-   C26-   O25-   C31
  1150  1147  1166  1167   9   0.00   1.00416   3 ;    C29-   C26-   O25-   C31
  1150  1149  1146  1152   9   0.00   0.65084   3 ;    C29-   C28-   C25-   H43
  1150  1149  1156  1157   9   0.00   0.00000   0 ;    C29-   C28-   O21-   H47
  1151  1147  1150  1154   9   0.00   0.65084   3 ;    H42-   C26-   C29-   H45
  1151  1147  1150  1158   9   0.00   0.65084   3 ;    H42-   C26-   C29-   O22
  1151  1147  1166  1167   9   0.00   1.60387   3 ;    H42-   C26-   O25-   C31
  1152  1146  1148  1155   9   0.00   0.65084   3 ;    H43-   C25-   C27-   H46
  1152  1146  1148  1160   9   0.00   0.00000   0 ;    H43-   C25-   C27-   O23
  1152  1146  1148  1160   9   0.00   1.04600   1 ;    H43-   C25-   C27-   O23
  1152  1146  1148  1161   9   0.00   0.65084   3 ;    H43-   C25-   C27-   C30
  1152  1146  1149  1153   9   0.00   0.65084   3 ;    H43-   C25-   C28-   H44
  1152  1146  1149  1156   9   0.00   0.00000   0 ;    H43-   C25-   C28-   O21
  1152  1146  1149  1156   9   0.00   1.04600   1 ;    H43-   C25-   C28-   O21
  1153  1149  1150  1154   9   0.00   0.65084   3 ;    H44-   C28-   C29-   H45
  1153  1149  1150  1158   9   0.00   0.00000   0 ;    H44-   C28-   C29-   O22
  1153  1149  1150  1158   9   0.00   1.04600   1 ;    H44-   C28-   C29-   O22
  1153  1149  1156  1157   9   0.00   0.47279   3 ;    H44-   C28-   O21-   H47
  1154  1150  1147  1160   9   0.00   0.00000   0 ;    H45-   C29-   C26-   O23
  1154  1150  1147  1160   9   0.00   1.04600   1 ;    H45-   C29-   C26-   O23
  1154  1150  1147  1166   9   0.00   0.00000   0 ;    H45-   C29-   C26-   O25
  1154  1150  1147  1166   9   0.00   1.04600   1 ;    H45-   C29-   C26-   O25
  1154  1150  1149  1156   9   0.00   0.00000   0 ;    H45-   C29-   C28-   O21
  1154  1150  1149  1156   9   0.00   1.04600   1 ;    H45-   C29-   C28-   O21
  1154  1150  1158  1159   9   0.00   0.47279   3 ;    H45-   C29-   O22-   H48
  1155  1148  1161  1162   9   0.00   0.65084   3 ;    H46-   C27-   C30-   H49
  1155  1148  1161  1163   9   0.00   0.65084   3 ;    H46-   C27-   C30-   H50
  1155  1148  1161  1164   9   0.00   0.00000   0 ;    H46-   C27-   C30-   O24
  1155  1148  1161  1164   9   0.00   1.04600   1 ;    H46-   C27-   C30-   O24
  1156  1149  1150  1158   9   0.00   3.76560   3 ;    O21-   C28-   C29-   O22
  1156  1149  1150  1158   9   0.00   4.72792   2 ;    O21-   C28-   C29-   O22
  1158  1150  1147  1160   9   0.00   0.00000   0 ;    O22-   C29-   C26-   O23
  1158  1150  1147  1160   9   0.00   4.22584   3 ;    O22-   C29-   C26-   O23
  1158  1150  1147  1160   9   180.00   0.08368   1 ;    O22-   C29-   C26-   O23
  1158  1150  1147  1166   9   0.00   0.00000   0 ;    O22-   C29-   C26-   O25
  1158  1150  1147  1166   9   0.00   4.22584   3 ;    O22-   C29-   C26-   O25
  1158  1150  1147  1166   9   180.00   0.08368   1 ;    O22-   C29-   C26-   O25
  1160  1147  1166  1167   9   0.00   5.18816   2 ;    O23-   C26-   O25-   C31
  1160  1147  1166  1167   9   180.00   0.00000   3 ;    O23-   C26-   O25-   C31
  1160  1147  1166  1167   9   180.00   4.05848   1 ;    O23-   C26-   O25-   C31
  1160  1148  1161  1162   9   0.00   0.00000   0 ;    O23-   C27-   C30-   H49
  1160  1148  1161  1162   9   0.00   1.04600   1 ;    O23-   C27-   C30-   H49
  1160  1148  1161  1163   9   0.00   0.00000   0 ;    O23-   C27-   C30-   H50
  1160  1148  1161  1163   9   0.00   1.04600   1 ;    O23-   C27-   C30-   H50
  1160  1148  1161  1164   9   0.00   0.00000   0 ;    O23-   C27-   C30-   O24
  1160  1148  1161  1164   9   0.00   4.22584   3 ;    O23-   C27-   C30-   O24
  1160  1148  1161  1164   9   180.00   0.08368   1 ;    O23-   C27-   C30-   O24
  1162  1161  1164  1165   9   0.00   0.47279   3 ;    H49-   C30-   O24-   H51
  1163  1161  1164  1165   9   0.00   0.47279   3 ;    H50-   C30-   O24-   H51
  1166  1167  1169  1168   9   0.00   0.65084   3 ;    O25-   C31-   C33-   C32
  1166  1167  1169  1172   9   0.00   0.00000   0 ;    O25-   C31-   C33-   H52
  1166  1167  1169  1172   9   0.00   1.04600   1 ;    O25-   C31-   C33-   H52
  1166  1167  1169  1185   9   0.00   0.00000   0 ;    O25-   C31-   C33-   O29
  1166  1167  1169  1185   9   0.00   4.22584   3 ;    O25-   C31-   C33-   O29
  1166  1167  1169  1185   9   180.00   0.08368   1 ;    O25-   C31-   C33-   O29
  1166  1167  1170  1174   9   0.00   0.00000   0 ;    O25-   C31-   C34-   H54
  1166  1167  1170  1174   9   0.00   1.04600   1 ;    O25-   C31-   C34-   H54
  1166  1167  1170  1177   9   0.00   0.00000   0 ;    O25-   C31-   C34-   O26
  1166  1167  1170  1177   9   180.00   0.00000   2 ;    O25-   C31-   C34-   O26
  1166  1167  1170  1177   9   180.00   0.71128   1 ;    O25-   C31-   C34-   O26
  1166  1167  1170  1178   9   0.00   0.65084   3 ;    O25-   C31-   C34-   C36
  1167  1169  1168  1171   9   0.00   0.46024   1 ;    C31-   C33-   C32-   C35
  1167  1169  1168  1171   9   0.00   0.54392   3 ;    C31-   C33-   C32-   C35
  1167  1169  1168  1171   9   180.00   1.21336   2 ;    C31-   C33-   C32-   C35
  1167  1169  1168  1173   9   0.00   0.65084   3 ;    C31-   C33-   C32-   H53
  1167  1169  1168  1183   9   0.00   0.87864   3 ;    C31-   C33-   C32-   O28
  1167  1169  1185  1186   9   0.00   0.00000   0 ;    C31-   C33-   O29-   H61
  1167  1170  1177  1171   9   0.00   0.00000   0 ;    C31-   C34-   O26-   C35
  1167  1170  1177  1171   9   0.00   0.66944   2 ;    C31-   C34-   O26-   C35
  1167  1170  1177  1171   9   0.00   1.00416   3 ;    C31-   C34-   O26-   C35
  1167  1170  1178  1179   9   0.00   0.65084   3 ;    C31-   C34-   C36-   H57
  1167  1170  1178  1180   9   0.00   0.65084   3 ;    C31-   C34-   C36-   H58
  1167  1170  1178  1181   9   0.00   0.87864   3 ;    C31-   C34-   C36-   O27
  1168  1169  1167  1170   9   0.00   0.46024   1 ;    C32-   C33-   C31-   C34
  1168  1169  1167  1170   9   0.00   0.54392   3 ;    C32-   C33-   C31-   C34
  1168  1169  1167  1170   9   180.00   1.21336   2 ;    C32-   C33-   C31-   C34
  1168  1169  1167  1176   9   0.00   0.65084   3 ;    C32-   C33-   C31-   H56
  1168  1169  1185  1186   9   0.00   0.00000   0 ;    C32-   C33-   O29-   H61
  1168  1171  1177  1170   9   0.00   0.00000   0 ;    C32-   C35-   O26-   C34
  1168  1171  1177  1170   9   0.00   0.66944   2 ;    C32-   C35-   O26-   C34
  1168  1171  1177  1170   9   0.00   1.00416   3 ;    C32-   C35-   O26-   C34
  1168  1171  1187  1188   9   0.00   0.00000   0 ;    C32-   C35-   O30-   C37
  1168  1171  1187  1188   9   0.00   0.66944   2 ;    C32-   C35-   O30-   C37
  1168  1171  1187  1188   9   0.00   1.00416   3 ;    C32-   C35-   O30-   C37
  1169  1167  1170  1174   9   0.00   0.65084   3 ;    C33-   C31-   C34-   H54
  1169  1167  1170  1177   9   0.00   0.65084   3 ;    C33-   C31-   C34-   O26
  1169  1167  1170  1178   9   0.00   0.46024   1 ;    C33-   C31-   C34-   C36
  1169  1167  1170  1178   9   0.00   0.54392   3 ;    C33-   C31-   C34-   C36
  1169  1167  1170  1178   9   180.00   1.21336   2 ;    C33-   C31-   C34-   C36
  1169  1168  1171  1175   9   0.00   0.65084   3 ;    C33-   C32-   C35-   H55
  1169  1168  1171  1177   9   0.00   0.65084   3 ;    C33-   C32-   C35-   O26
  1169  1168  1171  1187   9   0.00   0.65084   3 ;    C33-   C32-   C35-   O30
  1169  1168  1183  1184   9   0.00   0.00000   0 ;    C33-   C32-   O28-   H60
  1170  1167  1169  1172   9   0.00   0.65084   3 ;    C34-   C31-   C33-   H52
  1170  1167  1169  1185   9   0.00   0.87864   3 ;    C34-   C31-   C33-   O29
  1170  1177  1171  1175   9   0.00   1.60387   3 ;    C34-   O26-   C35-   H55
  1170  1177  1171  1187   9   0.00   5.18816   2 ;    C34-   O26-   C35-   O30
  1170  1177  1171  1187   9   180.00   0.00000   3 ;    C34-   O26-   C35-   O30
  1170  1177  1171  1187   9   180.00   4.05848   1 ;    C34-   O26-   C35-   O30
  1170  1178  1181  1182   9   0.00   0.00000   0 ;    C34-   C36-   O27-   H59
  1171  1168  1169  1172   9   0.00   0.65084   3 ;    C35-   C32-   C33-   H52
  1171  1168  1169  1185   9   0.00   0.87864   3 ;    C35-   C32-   C33-   O29
  1171  1168  1183  1184   9   0.00   0.00000   0 ;    C35-   C32-   O28-   H60
  1171  1177  1170  1174   9   0.00   1.41001   3 ;    C35-   O26-   C34-   H54
  1171  1177  1170  1178   9   0.00   0.00000   0 ;    C35-   O26-   C34-   C36
  1171  1177  1170  1178   9   0.00   0.66944   2 ;    C35-   O26-   C34-   C36
  1171  1177  1170  1178   9   0.00   1.00416   3 ;    C35-   O26-   C34-   C36
  1171  1187  1188  1190   9   0.00   0.00000   0 ;    C35-   O30-   C37-   C39
  1171  1187  1188  1190   9   0.00   0.66944   2 ;    C35-   O30-   C37-   C39
  1171  1187  1188  1190   9   0.00   1.00416   3 ;    C35-   O30-   C37-   C39
  1171  1187  1188  1191   9   0.00   0.00000   0 ;    C35-   O30-   C37-   C40
  1171  1187  1188  1191   9   0.00   0.66944   2 ;    C35-   O30-   C37-   C40
  1171  1187  1188  1191   9   0.00   1.00416   3 ;    C35-   O30-   C37-   C40
  1171  1187  1188  1194   9   0.00   1.41001   3 ;    C35-   O30-   C37-   H63
  1172  1169  1167  1176   9   0.00   0.65084   3 ;    H52-   C33-   C31-   H56
  1172  1169  1168  1173   9   0.00   0.65084   3 ;    H52-   C33-   C32-   H53
  1172  1169  1168  1183   9   0.00   0.00000   0 ;    H52-   C33-   C32-   O28
  1172  1169  1168  1183   9   0.00   1.04600   1 ;    H52-   C33-   C32-   O28
  1172  1169  1185  1186   9   0.00   0.47279   3 ;    H52-   C33-   O29-   H61
  1173  1168  1169  1185   9   0.00   0.00000   0 ;    H53-   C32-   C33-   O29
  1173  1168  1169  1185   9   0.00   1.04600   1 ;    H53-   C32-   C33-   O29
  1173  1168  1171  1175   9   0.00   0.65084   3 ;    H53-   C32-   C35-   H55
  1173  1168  1171  1177   9   0.00   0.00000   0 ;    H53-   C32-   C35-   O26
  1173  1168  1171  1177   9   0.00   1.04600   1 ;    H53-   C32-   C35-   O26
  1173  1168  1171  1187   9   0.00   0.00000   0 ;    H53-   C32-   C35-   O30
  1173  1168  1171  1187   9   0.00   1.04600   1 ;    H53-   C32-   C35-   O30
  1173  1168  1183  1184   9   0.00   0.47279   3 ;    H53-   C32-   O28-   H60
  1174  1170  1167  1176   9   0.00   0.65084   3 ;    H54-   C34-   C31-   H56
  1174  1170  1178  1179   9   0.00   0.65084   3 ;    H54-   C34-   C36-   H57
  1174  1170  1178  1180   9   0.00   0.65084   3 ;    H54-   C34-   C36-   H58
  1174  1170  1178  1181   9   0.00   0.00000   0 ;    H54-   C34-   C36-   O27
  1174  1170  1178  1181   9   0.00   1.04600   1 ;    H54-   C34-   C36-   O27
  1175  1171  1168  1183   9   0.00   0.65084   3 ;    H55-   C35-   C32-   O28
  1175  1171  1187  1188   9   0.00   1.60387   3 ;    H55-   C35-   O30-   C37
  1176  1167  1169  1185   9   0.00   0.00000   0 ;    H56-   C31-   C33-   O29
  1176  1167  1169  1185   9   0.00   1.04600   1 ;    H56-   C31-   C33-   O29
  1176  1167  1170  1177   9   0.00   0.00000   0 ;    H56-   C31-   C34-   O26
  1176  1167  1170  1177   9   0.00   1.04600   1 ;    H56-   C31-   C34-   O26
  1176  1167  1170  1178   9   0.00   0.65084   3 ;    H56-   C31-   C34-   C36
  1177  1170  1178  1179   9   0.00   0.00000   0 ;    O26-   C34-   C36-   H57
  1177  1170  1178  1179   9   0.00   1.04600   1 ;    O26-   C34-   C36-   H57
  1177  1170  1178  1180   9   0.00   0.00000   0 ;    O26-   C34-   C36-   H58
  1177  1170  1178  1180   9   0.00   1.04600   1 ;    O26-   C34-   C36-   H58
  1177  1170  1178  1181   9   0.00   0.00000   0 ;    O26-   C34-   C36-   O27
  1177  1170  1178  1181   9   0.00   4.22584   3 ;    O26-   C34-   C36-   O27
  1177  1170  1178  1181   9   180.00   0.08368   1 ;    O26-   C34-   C36-   O27
  1177  1171  1168  1183   9   0.00   0.00000   0 ;    O26-   C35-   C32-   O28
  1177  1171  1168  1183   9   0.00   4.22584   3 ;    O26-   C35-   C32-   O28
  1177  1171  1168  1183   9   180.00   0.08368   1 ;    O26-   C35-   C32-   O28
  1177  1171  1187  1188   9   0.00   5.18816   2 ;    O26-   C35-   O30-   C37
  1177  1171  1187  1188   9   180.00   0.00000   3 ;    O26-   C35-   O30-   C37
  1177  1171  1187  1188   9   180.00   4.05848   1 ;    O26-   C35-   O30-   C37
  1179  1178  1181  1182   9   0.00   0.47279   3 ;    H57-   C36-   O27-   H59
  1180  1178  1181  1182   9   0.00   0.47279   3 ;    H58-   C36-   O27-   H59
  1183  1168  1169  1185   9   0.00   3.76560   3 ;    O28-   C32-   C33-   O29
  1183  1168  1169  1185   9   0.00   4.72792   2 ;    O28-   C32-   C33-   O29
  1183  1168  1171  1187   9   0.00   0.00000   0 ;    O28-   C32-   C35-   O30
  1183  1168  1171  1187   9   0.00   4.22584   3 ;    O28-   C32-   C35-   O30
  1183  1168  1171  1187   9   180.00   0.08368   1 ;    O28-   C32-   C35-   O30
  1187  1188  1190  1197   9   0.00   0.00000   0 ;    O30-   C37-   C39-   H66
  1187  1188  1190  1197   9   0.00   1.04600   1 ;    O30-   C37-   C39-   H66
  1187  1188  1190  1202   9   0.00   0.00000   0 ;    O30-   C37-   C39-   O33
  1187  1188  1190  1202   9   180.00   0.00000   2 ;    O30-   C37-   C39-   O33
  1187  1188  1190  1202   9   180.00   0.71128   1 ;    O30-   C37-   C39-   O33
  1187  1188  1190  1203   9   0.00   0.65084   3 ;    O30-   C37-   C39-   C42
  1187  1188  1191  1192   9   0.00   0.65084   3 ;    O30-   C37-   C40-   C41
  1187  1188  1191  1195   9   0.00   0.00000   0 ;    O30-   C37-   C40-   H64
  1187  1188  1191  1195   9   0.00   1.04600   1 ;    O30-   C37-   C40-   H64
  1187  1188  1191  1198   9   0.00   0.00000   0 ;    O30-   C37-   C40-   O31
  1187  1188  1191  1198   9   0.00   4.22584   3 ;    O30-   C37-   C40-   O31
  1187  1188  1191  1198   9   180.00   0.08368   1 ;    O30-   C37-   C40-   O31
  1188  1190  1202  1189   9   0.00   0.00000   0 ;    C37-   C39-   O33-   C38
  1188  1190  1202  1189   9   0.00   0.66944   2 ;    C37-   C39-   O33-   C38
  1188  1190  1202  1189   9   0.00   1.00416   3 ;    C37-   C39-   O33-   C38
  1188  1190  1203  1204   9   0.00   0.65084   3 ;    C37-   C39-   C42-   H69
  1188  1190  1203  1205   9   0.00   0.65084   3 ;    C37-   C39-   C42-   H70
  1188  1190  1203  1206   9   0.00   0.87864   3 ;    C37-   C39-   C42-   O34
  1188  1191  1192  1189   9   0.00   0.46024   1 ;    C37-   C40-   C41-   C38
  1188  1191  1192  1189   9   0.00   0.54392   3 ;    C37-   C40-   C41-   C38
  1188  1191  1192  1189   9   180.00   1.21336   2 ;    C37-   C40-   C41-   C38
  1188  1191  1192  1196   9   0.00   0.65084   3 ;    C37-   C40-   C41-   H65
  1188  1191  1192  1200   9   0.00   0.87864   3 ;    C37-   C40-   C41-   O32
  1188  1191  1198  1199   9   0.00   0.00000   0 ;    C37-   C40-   O31-   H67
  1189  1192  1191  1195   9   0.00   0.65084   3 ;    C38-   C41-   C40-   H64
  1189  1192  1191  1198   9   0.00   0.87864   3 ;    C38-   C41-   C40-   O31
  1189  1192  1200  1201   9   0.00   0.00000   0 ;    C38-   C41-   O32-   H68
  1189  1202  1190  1197   9   0.00   1.41001   3 ;    C38-   O33-   C39-   H66
  1189  1202  1190  1203   9   0.00   0.00000   0 ;    C38-   O33-   C39-   C42
  1189  1202  1190  1203   9   0.00   0.66944   2 ;    C38-   O33-   C39-   C42
  1189  1202  1190  1203   9   0.00   1.00416   3 ;    C38-   O33-   C39-   C42
  1189  1208  1209  1211   9   0.00   0.00000   0 ;    C38-   O35-   C43-   C45
  1189  1208  1209  1211   9   0.00   0.66944   2 ;    C38-   O35-   C43-   C45
  1189  1208  1209  1211   9   0.00   1.00416   3 ;    C38-   O35-   C43-   C45
  1189  1208  1209  1212   9   0.00   0.00000   0 ;    C38-   O35-   C43-   C46
  1189  1208  1209  1212   9   0.00   0.66944   2 ;    C38-   O35-   C43-   C46
  1189  1208  1209  1212   9   0.00   1.00416   3 ;    C38-   O35-   C43-   C46
  1189  1208  1209  1218   9   0.00   1.41001   3 ;    C38-   O35-   C43-   H76
  1190  1188  1191  1192   9   0.00   0.46024   1 ;    C39-   C37-   C40-   C41
  1190  1188  1191  1192   9   0.00   0.54392   3 ;    C39-   C37-   C40-   C41
  1190  1188  1191  1192   9   180.00   1.21336   2 ;    C39-   C37-   C40-   C41
  1190  1188  1191  1195   9   0.00   0.65084   3 ;    C39-   C37-   C40-   H64
  1190  1188  1191  1198   9   0.00   0.87864   3 ;    C39-   C37-   C40-   O31
  1190  1202  1189  1192   9   0.00   0.00000   0 ;    C39-   O33-   C38-   C41
  1190  1202  1189  1192   9   0.00   0.66944   2 ;    C39-   O33-   C38-   C41
  1190  1202  1189  1192   9   0.00   1.00416   3 ;    C39-   O33-   C38-   C41
  1190  1202  1189  1193   9   0.00   1.60387   3 ;    C39-   O33-   C38-   H62
  1190  1202  1189  1208   9   0.00   5.18816   2 ;    C39-   O33-   C38-   O35
  1190  1202  1189  1208   9   180.00   0.00000   3 ;    C39-   O33-   C38-   O35
  1190  1202  1189  1208   9   180.00   4.05848   1 ;    C39-   O33-   C38-   O35
  1190  1203  1206  1207   9   0.00   0.00000   0 ;    C39-   C42-   O34-   H71
  1191  1188  1190  1197   9   0.00   0.65084   3 ;    C40-   C37-   C39-   H66
  1191  1188  1190  1202   9   0.00   0.65084   3 ;    C40-   C37-   C39-   O33
  1191  1188  1190  1203   9   0.00   0.46024   1 ;    C40-   C37-   C39-   C42
  1191  1188  1190  1203   9   0.00   0.54392   3 ;    C40-   C37-   C39-   C42
  1191  1188  1190  1203   9   180.00   1.21336   2 ;    C40-   C37-   C39-   C42
  1191  1192  1189  1193   9   0.00   0.65084   3 ;    C40-   C41-   C38-   H62
  1191  1192  1189  1202   9   0.00   0.65084   3 ;    C40-   C41-   C38-   O33
  1191  1192  1189  1208   9   0.00   0.65084   3 ;    C40-   C41-   C38-   O35
  1191  1192  1200  1201   9   0.00   0.00000   0 ;    C40-   C41-   O32-   H68
  1192  1189  1208  1209   9   0.00   0.00000   0 ;    C41-   C38-   O35-   C43
  1192  1189  1208  1209   9   0.00   0.66944   2 ;    C41-   C38-   O35-   C43
  1192  1189  1208  1209   9   0.00   1.00416   3 ;    C41-   C38-   O35-   C43
  1192  1191  1188  1194   9   0.00   0.65084   3 ;    C41-   C40-   C37-   H63
  1192  1191  1198  1199   9   0.00   0.00000   0 ;    C41-   C40-   O31-   H67
  1193  1189  1192  1196   9   0.00   0.65084   3 ;    H62-   C38-   C41-   H65
  1193  1189  1192  1200   9   0.00   0.65084   3 ;    H62-   C38-   C41-   O32
  1193  1189  1208  1209   9   0.00   1.60387   3 ;    H62-   C38-   O35-   C43
  1194  1188  1190  1197   9   0.00   0.65084   3 ;    H63-   C37-   C39-   H66
  1194  1188  1190  1202   9   0.00   0.00000   0 ;    H63-   C37-   C39-   O33
  1194  1188  1190  1202   9   0.00   1.04600   1 ;    H63-   C37-   C39-   O33
  1194  1188  1190  1203   9   0.00   0.65084   3 ;    H63-   C37-   C39-   C42
  1194  1188  1191  1195   9   0.00   0.65084   3 ;    H63-   C37-   C40-   H64
  1194  1188  1191  1198   9   0.00   0.00000   0 ;    H63-   C37-   C40-   O31
  1194  1188  1191  1198   9   0.00   1.04600   1 ;    H63-   C37-   C40-   O31
  1195  1191  1192  1196   9   0.00   0.65084   3 ;    H64-   C40-   C41-   H65
  1195  1191  1192  1200   9   0.00   0.00000   0 ;    H64-   C40-   C41-   O32
  1195  1191  1192  1200   9   0.00   1.04600   1 ;    H64-   C40-   C41-   O32
  1195  1191  1198  1199   9   0.00   0.47279   3 ;    H64-   C40-   O31-   H67
  1196  1192  1189  1202   9   0.00   0.00000   0 ;    H65-   C41-   C38-   O33
  1196  1192  1189  1202   9   0.00   1.04600   1 ;    H65-   C41-   C38-   O33
  1196  1192  1189  1208   9   0.00   0.00000   0 ;    H65-   C41-   C38-   O35
  1196  1192  1189  1208   9   0.00   1.04600   1 ;    H65-   C41-   C38-   O35
  1196  1192  1191  1198   9   0.00   0.00000   0 ;    H65-   C41-   C40-   O31
  1196  1192  1191  1198   9   0.00   1.04600   1 ;    H65-   C41-   C40-   O31
  1196  1192  1200  1201   9   0.00   0.47279   3 ;    H65-   C41-   O32-   H68
  1197  1190  1203  1204   9   0.00   0.65084   3 ;    H66-   C39-   C42-   H69
  1197  1190  1203  1205   9   0.00   0.65084   3 ;    H66-   C39-   C42-   H70
  1197  1190  1203  1206   9   0.00   0.00000   0 ;    H66-   C39-   C42-   O34
  1197  1190  1203  1206   9   0.00   1.04600   1 ;    H66-   C39-   C42-   O34
  1198  1191  1192  1200   9   0.00   3.76560   3 ;    O31-   C40-   C41-   O32
  1198  1191  1192  1200   9   0.00   4.72792   2 ;    O31-   C40-   C41-   O32
  1200  1192  1189  1202   9   0.00   0.00000   0 ;    O32-   C41-   C38-   O33
  1200  1192  1189  1202   9   0.00   4.22584   3 ;    O32-   C41-   C38-   O33
  1200  1192  1189  1202   9   180.00   0.08368   1 ;    O32-   C41-   C38-   O33
  1200  1192  1189  1208   9   0.00   0.00000   0 ;    O32-   C41-   C38-   O35
  1200  1192  1189  1208   9   0.00   4.22584   3 ;    O32-   C41-   C38-   O35
  1200  1192  1189  1208   9   180.00   0.08368   1 ;    O32-   C41-   C38-   O35
  1202  1189  1208  1209   9   0.00   5.18816   2 ;    O33-   C38-   O35-   C43
  1202  1189  1208  1209   9   180.00   0.00000   3 ;    O33-   C38-   O35-   C43
  1202  1189  1208  1209   9   180.00   4.05848   1 ;    O33-   C38-   O35-   C43
  1202  1190  1203  1204   9   0.00   0.00000   0 ;    O33-   C39-   C42-   H69
  1202  1190  1203  1204   9   0.00   1.04600   1 ;    O33-   C39-   C42-   H69
  1202  1190  1203  1205   9   0.00   0.00000   0 ;    O33-   C39-   C42-   H70
  1202  1190  1203  1205   9   0.00   1.04600   1 ;    O33-   C39-   C42-   H70
  1202  1190  1203  1206   9   0.00   0.00000   0 ;    O33-   C39-   C42-   O34
  1202  1190  1203  1206   9   0.00   4.22584   3 ;    O33-   C39-   C42-   O34
  1202  1190  1203  1206   9   180.00   0.08368   1 ;    O33-   C39-   C42-   O34
  1204  1203  1206  1207   9   0.00   0.47279   3 ;    H69-   C42-   O34-   H71
  1205  1203  1206  1207   9   0.00   0.47279   3 ;    H70-   C42-   O34-   H71
  1208  1209  1211  1210   9   0.00   0.65084   3 ;    O35-   C43-   C45-   C44
  1208  1209  1211  1214   9   0.00   0.00000   0 ;    O35-   C43-   C45-   H72
  1208  1209  1211  1214   9   0.00   1.04600   1 ;    O35-   C43-   C45-   H72
  1208  1209  1211  1227   9   0.00   0.00000   0 ;    O35-   C43-   C45-   O39
  1208  1209  1211  1227   9   0.00   4.22584   3 ;    O35-   C43-   C45-   O39
  1208  1209  1211  1227   9   180.00   0.08368   1 ;    O35-   C43-   C45-   O39
  1208  1209  1212  1216   9   0.00   0.00000   0 ;    O35-   C43-   C46-   H74
  1208  1209  1212  1216   9   0.00   1.04600   1 ;    O35-   C43-   C46-   H74
  1208  1209  1212  1219   9   0.00   0.00000   0 ;    O35-   C43-   C46-   O36
  1208  1209  1212  1219   9   180.00   0.00000   2 ;    O35-   C43-   C46-   O36
  1208  1209  1212  1219   9   180.00   0.71128   1 ;    O35-   C43-   C46-   O36
  1208  1209  1212  1220   9   0.00   0.65084   3 ;    O35-   C43-   C46-   C48
  1209  1211  1210  1213   9   0.00   0.46024   1 ;    C43-   C45-   C44-   C47
  1209  1211  1210  1213   9   0.00   0.54392   3 ;    C43-   C45-   C44-   C47
  1209  1211  1210  1213   9   180.00   1.21336   2 ;    C43-   C45-   C44-   C47
  1209  1211  1210  1215   9   0.00   0.65084   3 ;    C43-   C45-   C44-   H73
  1209  1211  1210  1225   9   0.00   0.87864   3 ;    C43-   C45-   C44-   O38
  1209  1211  1227  1228   9   0.00   0.00000   0 ;    C43-   C45-   O39-   H81
  1209  1212  1219  1213   9   0.00   0.00000   0 ;    C43-   C46-   O36-   C47
  1209  1212  1219  1213   9   0.00   0.66944   2 ;    C43-   C46-   O36-   C47
  1209  1212  1219  1213   9   0.00   1.00416   3 ;    C43-   C46-   O36-   C47
  1209  1212  1220  1221   9   0.00   0.65084   3 ;    C43-   C46-   C48-   H77
  1209  1212  1220  1222   9   0.00   0.65084   3 ;    C43-   C46-   C48-   H78
  1209  1212  1220  1223   9   0.00   0.87864   3 ;    C43-   C46-   C48-   O37
  1210  1211  1209  1212   9   0.00   0.46024   1 ;    C44-   C45-   C43-   C46
  1210  1211  1209  1212   9   0.00   0.54392   3 ;    C44-   C45-   C43-   C46
  1210  1211  1209  1212   9   180.00   1.21336   2 ;    C44-   C45-   C43-   C46
  1210  1211  1209  1218   9   0.00   0.65084   3 ;    C44-   C45-   C43-   H76
  1210  1211  1227  1228   9   0.00   0.00000   0 ;    C44-   C45-   O39-   H81
  1210  1213  1219  1212   9   0.00   0.00000   0 ;    C44-   C47-   O36-   C46
  1210  1213  1219  1212   9   0.00   0.66944   2 ;    C44-   C47-   O36-   C46
  1210  1213  1219  1212   9   0.00   1.00416   3 ;    C44-   C47-   O36-   C46
  1210  1213  1229  1230   9   0.00   0.00000   0 ;    C44-   C47-   O40-   C49
  1210  1213  1229  1230   9   0.00   0.66944   2 ;    C44-   C47-   O40-   C49
  1210  1213  1229  1230   9   0.00   1.00416   3 ;    C44-   C47-   O40-   C49
  1211  1209  1212  1216   9   0.00   0.65084   3 ;    C45-   C43-   C46-   H74
  1211  1209  1212  1219   9   0.00   0.65084   3 ;    C45-   C43-   C46-   O36
  1211  1209  1212  1220   9   0.00   0.46024   1 ;    C45-   C43-   C46-   C48
  1211  1209  1212  1220   9   0.00   0.54392   3 ;    C45-   C43-   C46-   C48
  1211  1209  1212  1220   9   180.00   1.21336   2 ;    C45-   C43-   C46-   C48
  1211  1210  1213  1217   9   0.00   0.65084   3 ;    C45-   C44-   C47-   H75
  1211  1210  1213  1219   9   0.00   0.65084   3 ;    C45-   C44-   C47-   O36
  1211  1210  1213  1229   9   0.00   0.65084   3 ;    C45-   C44-   C47-   O40
  1211  1210  1225  1226   9   0.00   0.00000   0 ;    C45-   C44-   O38-   H80
  1212  1209  1211  1214   9   0.00   0.65084   3 ;    C46-   C43-   C45-   H72
  1212  1209  1211  1227   9   0.00   0.87864   3 ;    C46-   C43-   C45-   O39
  1212  1219  1213  1217   9   0.00   1.60387   3 ;    C46-   O36-   C47-   H75
  1212  1219  1213  1229   9   0.00   5.18816   2 ;    C46-   O36-   C47-   O40
  1212  1219  1213  1229   9   180.00   0.00000   3 ;    C46-   O36-   C47-   O40
  1212  1219  1213  1229   9   180.00   4.05848   1 ;    C46-   O36-   C47-   O40
  1212  1220  1223  1224   9   0.00   0.00000   0 ;    C46-   C48-   O37-   H79
  1213  1210  1211  1214   9   0.00   0.65084   3 ;    C47-   C44-   C45-   H72
  1213  1210  1211  1227   9   0.00   0.87864   3 ;    C47-   C44-   C45-   O39
  1213  1210  1225  1226   9   0.00   0.00000   0 ;    C47-   C44-   O38-   H80
  1213  1219  1212  1216   9   0.00   1.41001   3 ;    C47-   O36-   C46-   H74
  1213  1219  1212  1220   9   0.00   0.00000   0 ;    C47-   O36-   C46-   C48
  1213  1219  1212  1220   9   0.00   0.66944   2 ;    C47-   O36-   C46-   C48
  1213  1219  1212  1220   9   0.00   1.00416   3 ;    C47-   O36-   C46-   C48
  1213  1229  1230  1232   9   0.00   0.00000   0 ;    C47-   O40-   C49-   C51
  1213  1229  1230  1232   9   0.00   0.66944   2 ;    C47-   O40-   C49-   C51
  1213  1229  1230  1232   9   0.00   1.00416   3 ;    C47-   O40-   C49-   C51
  1213  1229  1230  1233   9   0.00   0.00000   0 ;    C47-   O40-   C49-   C52
  1213  1229  1230  1233   9   0.00   0.66944   2 ;    C47-   O40-   C49-   C52
  1213  1229  1230  1233   9   0.00   1.00416   3 ;    C47-   O40-   C49-   C52
  1213  1229  1230  1236   9   0.00   1.41001   3 ;    C47-   O40-   C49-   H83
  1214  1211  1209  1218   9   0.00   0.65084   3 ;    H72-   C45-   C43-   H76
  1214  1211  1210  1215   9   0.00   0.65084   3 ;    H72-   C45-   C44-   H73
  1214  1211  1210  1225   9   0.00   0.00000   0 ;    H72-   C45-   C44-   O38
  1214  1211  1210  1225   9   0.00   1.04600   1 ;    H72-   C45-   C44-   O38
  1214  1211  1227  1228   9   0.00   0.47279   3 ;    H72-   C45-   O39-   H81
  1215  1210  1211  1227   9   0.00   0.00000   0 ;    H73-   C44-   C45-   O39
  1215  1210  1211  1227   9   0.00   1.04600   1 ;    H73-   C44-   C45-   O39
  1215  1210  1213  1217   9   0.00   0.65084   3 ;    H73-   C44-   C47-   H75
  1215  1210  1213  1219   9   0.00   0.00000   0 ;    H73-   C44-   C47-   O36
  1215  1210  1213  1219   9   0.00   1.04600   1 ;    H73-   C44-   C47-   O36
  1215  1210  1213  1229   9   0.00   0.00000   0 ;    H73-   C44-   C47-   O40
  1215  1210  1213  1229   9   0.00   1.04600   1 ;    H73-   C44-   C47-   O40
  1215  1210  1225  1226   9   0.00   0.47279   3 ;    H73-   C44-   O38-   H80
  1216  1212  1209  1218   9   0.00   0.65084   3 ;    H74-   C46-   C43-   H76
  1216  1212  1220  1221   9   0.00   0.65084   3 ;    H74-   C46-   C48-   H77
  1216  1212  1220  1222   9   0.00   0.65084   3 ;    H74-   C46-   C48-   H78
  1216  1212  1220  1223   9   0.00   0.00000   0 ;    H74-   C46-   C48-   O37
  1216  1212  1220  1223   9   0.00   1.04600   1 ;    H74-   C46-   C48-   O37
  1217  1213  1210  1225   9   0.00   0.65084   3 ;    H75-   C47-   C44-   O38
  1217  1213  1229  1230   9   0.00   1.60387   3 ;    H75-   C47-   O40-   C49
  1218  1209  1211  1227   9   0.00   0.00000   0 ;    H76-   C43-   C45-   O39
  1218  1209  1211  1227   9   0.00   1.04600   1 ;    H76-   C43-   C45-   O39
  1218  1209  1212  1219   9   0.00   0.00000   0 ;    H76-   C43-   C46-   O36
  1218  1209  1212  1219   9   0.00   1.04600   1 ;    H76-   C43-   C46-   O36
  1218  1209  1212  1220   9   0.00   0.65084   3 ;    H76-   C43-   C46-   C48
  1219  1212  1220  1221   9   0.00   0.00000   0 ;    O36-   C46-   C48-   H77
  1219  1212  1220  1221   9   0.00   1.04600   1 ;    O36-   C46-   C48-   H77
  1219  1212  1220  1222   9   0.00   0.00000   0 ;    O36-   C46-   C48-   H78
  1219  1212  1220  1222   9   0.00   1.04600   1 ;    O36-   C46-   C48-   H78
  1219  1212  1220  1223   9   0.00   0.00000   0 ;    O36-   C46-   C48-   O37
  1219  1212  1220  1223   9   0.00   4.22584   3 ;    O36-   C46-   C48-   O37
  1219  1212  1220  1223   9   180.00   0.08368   1 ;    O36-   C46-   C48-   O37
  1219  1213  1210  1225   9   0.00   0.00000   0 ;    O36-   C47-   C44-   O38
  1219  1213  1210  1225   9   0.00   4.22584   3 ;    O36-   C47-   C44-   O38
  1219  1213  1210  1225   9   180.00   0.08368   1 ;    O36-   C47-   C44-   O38
  1219  1213  1229  1230   9   0.00   5.18816   2 ;    O36-   C47-   O40-   C49
  1219  1213  1229  1230   9   180.00   0.00000   3 ;    O36-   C47-   O40-   C49
  1219  1213  1229  1230   9   180.00   4.05848   1 ;    O36-   C47-   O40-   C49
  1221  1220  1223  1224   9   0.00   0.47279   3 ;    H77-   C48-   O37-   H79
  1222  1220  1223  1224   9   0.00   0.47279   3 ;    H78-   C48-   O37-   H79
  1225  1210  1211  1227   9   0.00   3.76560   3 ;    O38-   C44-   C45-   O39
  1225  1210  1211  1227   9   0.00   4.72792   2 ;    O38-   C44-   C45-   O39
  1225  1210  1213  1229   9   0.00   0.00000   0 ;    O38-   C44-   C47-   O40
  1225  1210  1213  1229   9   0.00   4.22584   3 ;    O38-   C44-   C47-   O40
  1225  1210  1213  1229   9   180.00   0.08368   1 ;    O38-   C44-   C47-   O40
  1229  1230  1232  1239   9   0.00   0.00000   0 ;    O40-   C49-   C51-   H86
  1229  1230  1232  1239   9   0.00   1.04600   1 ;    O40-   C49-   C51-   H86
  1229  1230  1232  1244   9   0.00   0.00000   0 ;    O40-   C49-   C51-   O43
  1229  1230  1232  1244   9   180.00   0.00000   2 ;    O40-   C49-   C51-   O43
  1229  1230  1232  1244   9   180.00   0.71128   1 ;    O40-   C49-   C51-   O43
  1229  1230  1232  1245   9   0.00   0.65084   3 ;    O40-   C49-   C51-   C54
  1229  1230  1233  1234   9   0.00   0.65084   3 ;    O40-   C49-   C52-   C53
  1229  1230  1233  1237   9   0.00   0.00000   0 ;    O40-   C49-   C52-   H84
  1229  1230  1233  1237   9   0.00   1.04600   1 ;    O40-   C49-   C52-   H84
  1229  1230  1233  1240   9   0.00   0.00000   0 ;    O40-   C49-   C52-   O41
  1229  1230  1233  1240   9   0.00   4.22584   3 ;    O40-   C49-   C52-   O41
  1229  1230  1233  1240   9   180.00   0.08368   1 ;    O40-   C49-   C52-   O41
  1230  1232  1244  1231   9   0.00   0.00000   0 ;    C49-   C51-   O43-   C50
  1230  1232  1244  1231   9   0.00   0.66944   2 ;    C49-   C51-   O43-   C50
  1230  1232  1244  1231   9   0.00   1.00416   3 ;    C49-   C51-   O43-   C50
  1230  1232  1245  1246   9   0.00   0.65084   3 ;    C49-   C51-   C54-   H89
  1230  1232  1245  1247   9   0.00   0.65084   3 ;    C49-   C51-   C54-   H90
  1230  1232  1245  1248   9   0.00   0.87864   3 ;    C49-   C51-   C54-   O44
  1230  1233  1234  1231   9   0.00   0.46024   1 ;    C49-   C52-   C53-   C50
  1230  1233  1234  1231   9   0.00   0.54392   3 ;    C49-   C52-   C53-   C50
  1230  1233  1234  1231   9   180.00   1.21336   2 ;    C49-   C52-   C53-   C50
  1230  1233  1234  1238   9   0.00   0.65084   3 ;    C49-   C52-   C53-   H85
  1230  1233  1234  1242   9   0.00   0.87864   3 ;    C49-   C52-   C53-   O42
  1230  1233  1240  1241   9   0.00   0.00000   0 ;    C49-   C52-   O41-   H87
  1231  1234  1233  1237   9   0.00   0.65084   3 ;    C50-   C53-   C52-   H84
  1231  1234  1233  1240   9   0.00   0.87864   3 ;    C50-   C53-   C52-   O41
  1231  1234  1242  1243   9   0.00   0.00000   0 ;    C50-   C53-   O42-   H88
  1231  1244  1232  1239   9   0.00   1.41001   3 ;    C50-   O43-   C51-   H86
  1231  1244  1232  1245   9   0.00   0.00000   0 ;    C50-   O43-   C51-   C54
  1231  1244  1232  1245   9   0.00   0.66944   2 ;    C50-   O43-   C51-   C54
  1231  1244  1232  1245   9   0.00   1.00416   3 ;    C50-   O43-   C51-   C54
  1231  1250  1251  1253   9   0.00   0.00000   0 ;    C50-   O45-   C55-   C57
  1231  1250  1251  1253   9   0.00   0.66944   2 ;    C50-   O45-   C55-   C57
  1231  1250  1251  1253   9   0.00   1.00416   3 ;    C50-   O45-   C55-   C57
  1231  1250  1251  1254   9   0.00   0.00000   0 ;    C50-   O45-   C55-   C58
  1231  1250  1251  1254   9   0.00   0.66944   2 ;    C50-   O45-   C55-   C58
  1231  1250  1251  1254   9   0.00   1.00416   3 ;    C50-   O45-   C55-   C58
  1231  1250  1251  1260   9   0.00   1.41001   3 ;    C50-   O45-   C55-   H96
  1232  1230  1233  1234   9   0.00   0.46024   1 ;    C51-   C49-   C52-   C53
  1232  1230  1233  1234   9   0.00   0.54392   3 ;    C51-   C49-   C52-   C53
  1232  1230  1233  1234   9   180.00   1.21336   2 ;    C51-   C49-   C52-   C53
  1232  1230  1233  1237   9   0.00   0.65084   3 ;    C51-   C49-   C52-   H84
  1232  1230  1233  1240   9   0.00   0.87864   3 ;    C51-   C49-   C52-   O41
  1232  1244  1231  1234   9   0.00   0.00000   0 ;    C51-   O43-   C50-   C53
  1232  1244  1231  1234   9   0.00   0.66944   2 ;    C51-   O43-   C50-   C53
  1232  1244  1231  1234   9   0.00   1.00416   3 ;    C51-   O43-   C50-   C53
  1232  1244  1231  1235   9   0.00   1.60387   3 ;    C51-   O43-   C50-   H82
  1232  1244  1231  1250   9   0.00   5.18816   2 ;    C51-   O43-   C50-   O45
  1232  1244  1231  1250   9   180.00   0.00000   3 ;    C51-   O43-   C50-   O45
  1232  1244  1231  1250   9   180.00   4.05848   1 ;    C51-   O43-   C50-   O45
  1232  1245  1248  1249   9   0.00   0.00000   0 ;    C51-   C54-   O44-   H91
  1233  1230  1232  1239   9   0.00   0.65084   3 ;    C52-   C49-   C51-   H86
  1233  1230  1232  1244   9   0.00   0.65084   3 ;    C52-   C49-   C51-   O43
  1233  1230  1232  1245   9   0.00   0.46024   1 ;    C52-   C49-   C51-   C54
  1233  1230  1232  1245   9   0.00   0.54392   3 ;    C52-   C49-   C51-   C54
  1233  1230  1232  1245   9   180.00   1.21336   2 ;    C52-   C49-   C51-   C54
  1233  1234  1231  1235   9   0.00   0.65084   3 ;    C52-   C53-   C50-   H82
  1233  1234  1231  1244   9   0.00   0.65084   3 ;    C52-   C53-   C50-   O43
  1233  1234  1231  1250   9   0.00   0.65084   3 ;    C52-   C53-   C50-   O45
  1233  1234  1242  1243   9   0.00   0.00000   0 ;    C52-   C53-   O42-   H88
  1234  1231  1250  1251   9   0.00   0.00000   0 ;    C53-   C50-   O45-   C55
  1234  1231  1250  1251   9   0.00   0.66944   2 ;    C53-   C50-   O45-   C55
  1234  1231  1250  1251   9   0.00   1.00416   3 ;    C53-   C50-   O45-   C55
  1234  1233  1230  1236   9   0.00   0.65084   3 ;    C53-   C52-   C49-   H83
  1234  1233  1240  1241   9   0.00   0.00000   0 ;    C53-   C52-   O41-   H87
  1235  1231  1234  1238   9   0.00   0.65084   3 ;    H82-   C50-   C53-   H85
  1235  1231  1234  1242   9   0.00   0.65084   3 ;    H82-   C50-   C53-   O42
  1235  1231  1250  1251   9   0.00   1.60387   3 ;    H82-   C50-   O45-   C55
  1236  1230  1232  1239   9   0.00   0.65084   3 ;    H83-   C49-   C51-   H86
  1236  1230  1232  1244   9   0.00   0.00000   0 ;    H83-   C49-   C51-   O43
  1236  1230  1232  1244   9   0.00   1.04600   1 ;    H83-   C49-   C51-   O43
  1236  1230  1232  1245   9   0.00   0.65084   3 ;    H83-   C49-   C51-   C54
  1236  1230  1233  1237   9   0.00   0.65084   3 ;    H83-   C49-   C52-   H84
  1236  1230  1233  1240   9   0.00   0.00000   0 ;    H83-   C49-   C52-   O41
  1236  1230  1233  1240   9   0.00   1.04600   1 ;    H83-   C49-   C52-   O41
  1237  1233  1234  1238   9   0.00   0.65084   3 ;    H84-   C52-   C53-   H85
  1237  1233  1234  1242   9   0.00   0.00000   0 ;    H84-   C52-   C53-   O42
  1237  1233  1234  1242   9   0.00   1.04600   1 ;    H84-   C52-   C53-   O42
  1237  1233  1240  1241   9   0.00   0.47279   3 ;    H84-   C52-   O41-   H87
  1238  1234  1231  1244   9   0.00   0.00000   0 ;    H85-   C53-   C50-   O43
  1238  1234  1231  1244   9   0.00   1.04600   1 ;    H85-   C53-   C50-   O43
  1238  1234  1231  1250   9   0.00   0.00000   0 ;    H85-   C53-   C50-   O45
  1238  1234  1231  1250   9   0.00   1.04600   1 ;    H85-   C53-   C50-   O45
  1238  1234  1233  1240   9   0.00   0.00000   0 ;    H85-   C53-   C52-   O41
  1238  1234  1233  1240   9   0.00   1.04600   1 ;    H85-   C53-   C52-   O41
  1238  1234  1242  1243   9   0.00   0.47279   3 ;    H85-   C53-   O42-   H88
  1239  1232  1245  1246   9   0.00   0.65084   3 ;    H86-   C51-   C54-   H89
  1239  1232  1245  1247   9   0.00   0.65084   3 ;    H86-   C51-   C54-   H90
  1239  1232  1245  1248   9   0.00   0.00000   0 ;    H86-   C51-   C54-   O44
  1239  1232  1245  1248   9   0.00   1.04600   1 ;    H86-   C51-   C54-   O44
  1240  1233  1234  1242   9   0.00   3.76560   3 ;    O41-   C52-   C53-   O42
  1240  1233  1234  1242   9   0.00   4.72792   2 ;    O41-   C52-   C53-   O42
  1242  1234  1231  1244   9   0.00   0.00000   0 ;    O42-   C53-   C50-   O43
  1242  1234  1231  1244   9   0.00   4.22584   3 ;    O42-   C53-   C50-   O43
  1242  1234  1231  1244   9   180.00   0.08368   1 ;    O42-   C53-   C50-   O43
  1242  1234  1231  1250   9   0.00   0.00000   0 ;    O42-   C53-   C50-   O45
  1242  1234  1231  1250   9   0.00   4.22584   3 ;    O42-   C53-   C50-   O45
  1242  1234  1231  1250   9   180.00   0.08368   1 ;    O42-   C53-   C50-   O45
  1244  1231  1250  1251   9   0.00   5.18816   2 ;    O43-   C50-   O45-   C55
  1244  1231  1250  1251   9   180.00   0.00000   3 ;    O43-   C50-   O45-   C55
  1244  1231  1250  1251   9   180.00   4.05848   1 ;    O43-   C50-   O45-   C55
  1244  1232  1245  1246   9   0.00   0.00000   0 ;    O43-   C51-   C54-   H89
  1244  1232  1245  1246   9   0.00   1.04600   1 ;    O43-   C51-   C54-   H89
  1244  1232  1245  1247   9   0.00   0.00000   0 ;    O43-   C51-   C54-   H90
  1244  1232  1245  1247   9   0.00   1.04600   1 ;    O43-   C51-   C54-   H90
  1244  1232  1245  1248   9   0.00   0.00000   0 ;    O43-   C51-   C54-   O44
  1244  1232  1245  1248   9   0.00   4.22584   3 ;    O43-   C51-   C54-   O44
  1244  1232  1245  1248   9   180.00   0.08368   1 ;    O43-   C51-   C54-   O44
  1246  1245  1248  1249   9   0.00   0.47279   3 ;    H89-   C54-   O44-   H91
  1247  1245  1248  1249   9   0.00   0.47279   3 ;    H90-   C54-   O44-   H91
  1250  1251  1253  1252   9   0.00   0.65084   3 ;    O45-   C55-   C57-   C56
  1250  1251  1253  1256   9   0.00   0.00000   0 ;    O45-   C55-   C57-   H92
  1250  1251  1253  1256   9   0.00   1.04600   1 ;    O45-   C55-   C57-   H92
  1250  1251  1253  1269   9   0.00   0.00000   0 ;    O45-   C55-   C57-   O49
  1250  1251  1253  1269   9   0.00   4.22584   3 ;    O45-   C55-   C57-   O49
  1250  1251  1253  1269   9   180.00   0.08368   1 ;    O45-   C55-   C57-   O49
  1250  1251  1254  1258   9   0.00   0.00000   0 ;    O45-   C55-   C58-   H94
  1250  1251  1254  1258   9   0.00   1.04600   1 ;    O45-   C55-   C58-   H94
  1250  1251  1254  1261   9   0.00   0.00000   0 ;    O45-   C55-   C58-   O46
  1250  1251  1254  1261   9   180.00   0.00000   2 ;    O45-   C55-   C58-   O46
  1250  1251  1254  1261   9   180.00   0.71128   1 ;    O45-   C55-   C58-   O46
  1250  1251  1254  1262   9   0.00   0.65084   3 ;    O45-   C55-   C58-   C60
  1251  1253  1252  1255   9   0.00   0.46024   1 ;    C55-   C57-   C56-   C59
  1251  1253  1252  1255   9   0.00   0.54392   3 ;    C55-   C57-   C56-   C59
  1251  1253  1252  1255   9   180.00   1.21336   2 ;    C55-   C57-   C56-   C59
  1251  1253  1252  1257   9   0.00   0.65084   3 ;    C55-   C57-   C56-   H93
  1251  1253  1252  1267   9   0.00   0.87864   3 ;    C55-   C57-   C56-   O48
  1251  1253  1269  1270   9   0.00   0.00000   0 ;    C55-   C57-   O49-  H101
  1251  1254  1261  1255   9   0.00   0.00000   0 ;    C55-   C58-   O46-   C59
  1251  1254  1261  1255   9   0.00   0.66944   2 ;    C55-   C58-   O46-   C59
  1251  1254  1261  1255   9   0.00   1.00416   3 ;    C55-   C58-   O46-   C59
  1251  1254  1262  1263   9   0.00   0.65084   3 ;    C55-   C58-   C60-   H97
  1251  1254  1262  1264   9   0.00   0.65084   3 ;    C55-   C58-   C60-   H98
  1251  1254  1262  1265   9   0.00   0.87864   3 ;    C55-   C58-   C60-   O47
  1252  1253  1251  1254   9   0.00   0.46024   1 ;    C56-   C57-   C55-   C58
  1252  1253  1251  1254   9   0.00   0.54392   3 ;    C56-   C57-   C55-   C58
  1252  1253  1251  1254   9   180.00   1.21336   2 ;    C56-   C57-   C55-   C58
  1252  1253  1251  1260   9   0.00   0.65084   3 ;    C56-   C57-   C55-   H96
  1252  1253  1269  1270   9   0.00   0.00000   0 ;    C56-   C57-   O49-  H101
  1252  1255  1261  1254   9   0.00   0.00000   0 ;    C56-   C59-   O46-   C58
  1252  1255  1261  1254   9   0.00   0.66944   2 ;    C56-   C59-   O46-   C58
  1252  1255  1261  1254   9   0.00   1.00416   3 ;    C56-   C59-   O46-   C58
  1252  1255  1271  1272   9   0.00   0.00000   0 ;    C56-   C59-   O50-  H102
  1253  1251  1254  1258   9   0.00   0.65084   3 ;    C57-   C55-   C58-   H94
  1253  1251  1254  1261   9   0.00   0.65084   3 ;    C57-   C55-   C58-   O46
  1253  1251  1254  1262   9   0.00   0.46024   1 ;    C57-   C55-   C58-   C60
  1253  1251  1254  1262   9   0.00   0.54392   3 ;    C57-   C55-   C58-   C60
  1253  1251  1254  1262   9   180.00   1.21336   2 ;    C57-   C55-   C58-   C60
  1253  1252  1255  1259   9   0.00   0.65084   3 ;    C57-   C56-   C59-   H95
  1253  1252  1255  1261   9   0.00   0.65084   3 ;    C57-   C56-   C59-   O46
  1253  1252  1255  1271   9   0.00   0.87864   3 ;    C57-   C56-   C59-   O50
  1253  1252  1267  1268   9   0.00   0.00000   0 ;    C57-   C56-   O48-  H100
  1254  1251  1253  1256   9   0.00   0.65084   3 ;    C58-   C55-   C57-   H92
  1254  1251  1253  1269   9   0.00   0.87864   3 ;    C58-   C55-   C57-   O49
  1254  1261  1255  1259   9   0.00   1.60387   3 ;    C58-   O46-   C59-   H95
  1254  1261  1255  1271   9   0.00   1.60387   3 ;    C58-   O46-   C59-   O50
  1254  1262  1265  1266   9   0.00   0.00000   0 ;    C58-   C60-   O47-   H99
  1255  1252  1253  1256   9   0.00   0.65084   3 ;    C59-   C56-   C57-   H92
  1255  1252  1253  1269   9   0.00   0.87864   3 ;    C59-   C56-   C57-   O49
  1255  1252  1267  1268   9   0.00   0.00000   0 ;    C59-   C56-   O48-  H100
  1255  1261  1254  1258   9   0.00   1.41001   3 ;    C59-   O46-   C58-   H94
  1255  1261  1254  1262   9   0.00   0.00000   0 ;    C59-   O46-   C58-   C60
  1255  1261  1254  1262   9   0.00   0.66944   2 ;    C59-   O46-   C58-   C60
  1255  1261  1254  1262   9   0.00   1.00416   3 ;    C59-   O46-   C58-   C60
  1256  1253  1251  1260   9   0.00   0.65084   3 ;    H92-   C57-   C55-   H96
  1256  1253  1252  1257   9   0.00   0.65084   3 ;    H92-   C57-   C56-   H93
  1256  1253  1252  1267   9   0.00   0.00000   0 ;    H92-   C57-   C56-   O48
  1256  1253  1252  1267   9   0.00   1.04600   1 ;    H92-   C57-   C56-   O48
  1256  1253  1269  1270   9   0.00   0.47279   3 ;    H92-   C57-   O49-  H101
  1257  1252  1253  1269   9   0.00   0.00000   0 ;    H93-   C56-   C57-   O49
  1257  1252  1253  1269   9   0.00   1.04600   1 ;    H93-   C56-   C57-   O49
  1257  1252  1255  1259   9   0.00   0.65084   3 ;    H93-   C56-   C59-   H95
  1257  1252  1255  1261   9   0.00   0.00000   0 ;    H93-   C56-   C59-   O46
  1257  1252  1255  1261   9   0.00   1.04600   1 ;    H93-   C56-   C59-   O46
  1257  1252  1255  1271   9   0.00   0.00000   0 ;    H93-   C56-   C59-   O50
  1257  1252  1255  1271   9   0.00   1.04600   1 ;    H93-   C56-   C59-   O50
  1257  1252  1267  1268   9   0.00   0.47279   3 ;    H93-   C56-   O48-  H100
  1258  1254  1251  1260   9   0.00   0.65084   3 ;    H94-   C58-   C55-   H96
  1258  1254  1262  1263   9   0.00   0.65084   3 ;    H94-   C58-   C60-   H97
  1258  1254  1262  1264   9   0.00   0.65084   3 ;    H94-   C58-   C60-   H98
  1258  1254  1262  1265   9   0.00   0.00000   0 ;    H94-   C58-   C60-   O47
  1258  1254  1262  1265   9   0.00   1.04600   1 ;    H94-   C58-   C60-   O47
  1259  1255  1252  1267   9   0.00   0.65084   3 ;    H95-   C59-   C56-   O48
  1259  1255  1271  1272   9   0.00   0.69733   3 ;    H95-   C59-   O50-  H102
  1260  1251  1253  1269   9   0.00   0.00000   0 ;    H96-   C55-   C57-   O49
  1260  1251  1253  1269   9   0.00   1.04600   1 ;    H96-   C55-   C57-   O49
  1260  1251  1254  1261   9   0.00   0.00000   0 ;    H96-   C55-   C58-   O46
  1260  1251  1254  1261   9   0.00   1.04600   1 ;    H96-   C55-   C58-   O46
  1260  1251  1254  1262   9   0.00   0.65084   3 ;    H96-   C55-   C58-   C60
  1261  1254  1262  1263   9   0.00   0.00000   0 ;    O46-   C58-   C60-   H97
  1261  1254  1262  1263   9   0.00   1.04600   1 ;    O46-   C58-   C60-   H97
  1261  1254  1262  1264   9   0.00   0.00000   0 ;    O46-   C58-   C60-   H98
  1261  1254  1262  1264   9   0.00   1.04600   1 ;    O46-   C58-   C60-   H98
  1261  1254  1262  1265   9   0.00   0.00000   0 ;    O46-   C58-   C60-   O47
  1261  1254  1262  1265   9   0.00   4.22584   3 ;    O46-   C58-   C60-   O47
  1261  1254  1262  1265   9   180.00   0.08368   1 ;    O46-   C58-   C60-   O47
  1261  1255  1252  1267   9   0.00   0.00000   0 ;    O46-   C59-   C56-   O48
  1261  1255  1252  1267   9   0.00   4.22584   3 ;    O46-   C59-   C56-   O48
  1261  1255  1252  1267   9   180.00   0.08368   1 ;    O46-   C59-   C56-   O48
  1261  1255  1271  1272   9   0.00   0.69733   3 ;    O46-   C59-   O50-  H102
  1263  1262  1265  1266   9   0.00   0.47279   3 ;    H97-   C60-   O47-   H99
  1264  1262  1265  1266   9   0.00   0.47279   3 ;    H98-   C60-   O47-   H99
  1267  1252  1253  1269   9   0.00   3.76560   3 ;    O48-   C56-   C57-   O49
  1267  1252  1253  1269   9   0.00   4.72792   2 ;    O48-   C56-   C57-   O49
  1267  1252  1255  1271   9   0.00   3.76560   3 ;    O48-   C56-   C59-   O50
  1267  1252  1255  1271   9   0.00   4.72792   2 ;    O48-   C56-   C59-   O50
  1273  1274  1276  1283   9   0.00   0.65084   3 ;     H1-    C1-    C3-    H6
  1273  1274  1276  1288   9   0.00   0.00000   0 ;     H1-    C1-    C3-    O3
  1273  1274  1276  1288   9   0.00   1.04600   1 ;     H1-    C1-    C3-    O3
  1273  1274  1276  1289   9   0.00   0.33472   3 ;     H1-    C1-    C3-    C6
  1273  1274  1277  1278   9   0.00   0.33472   3 ;     H1-    C1-    C4-    C5
  1273  1274  1277  1281   9   0.00   0.65084   3 ;     H1-    C1-    C4-    H4
  1273  1274  1277  1284   9   0.00   0.75312   3 ;     H1-    C1-    C4-    O1
  1273  1274  1277  1284   9   0.00   2.13384   1 ;     H1-    C1-    C4-    O1
  1274  1276  1288  1275   9   0.00   0.00000   0 ;     C1-    C3-    O3-    C2
  1274  1276  1288  1275   9   0.00   0.66944   2 ;     C1-    C3-    O3-    C2
  1274  1276  1288  1275   9   0.00   1.00416   3 ;     C1-    C3-    O3-    C2
  1274  1276  1289  1290   9   0.00   0.65084   3 ;     C1-    C3-    C6-    H9
  1274  1276  1289  1291   9   0.00   0.65084   3 ;     C1-    C3-    C6-   H10
  1274  1276  1289  1292   9   0.00   0.87864   3 ;     C1-    C3-    C6-    O4
  1274  1277  1278  1275   9   0.00   0.46024   1 ;     C1-    C4-    C5-    C2
  1274  1277  1278  1275   9   0.00   0.54392   3 ;     C1-    C4-    C5-    C2
  1274  1277  1278  1275   9   180.00   1.21336   2 ;     C1-    C4-    C5-    C2
  1274  1277  1278  1282   9   0.00   0.65084   3 ;     C1-    C4-    C5-    H5
  1274  1277  1278  1286   9   0.00   0.87864   3 ;     C1-    C4-    C5-    O2
  1274  1277  1284  1285   9   0.00   0.00000   0 ;     C1-    C4-    O1-    H7
  1275  1278  1277  1281   9   0.00   0.65084   3 ;     C2-    C5-    C4-    H4
  1275  1278  1277  1284   9   0.00   0.87864   3 ;     C2-    C5-    C4-    O1
  1275  1278  1286  1287   9   0.00   0.00000   0 ;     C2-    C5-    O2-    H8
  1275  1288  1276  1283   9   0.00   1.41001   3 ;     C2-    O3-    C3-    H6
  1275  1288  1276  1289   9   0.00   0.00000   0 ;     C2-    O3-    C3-    C6
  1275  1288  1276  1289   9   0.00   0.66944   2 ;     C2-    O3-    C3-    C6
  1275  1288  1276  1289   9   0.00   1.00416   3 ;     C2-    O3-    C3-    C6
  1275  1294  1295  1297   9   0.00   0.00000   0 ;     C2-    O5-    C7-    C9
  1275  1294  1295  1297   9   0.00   0.66944   2 ;     C2-    O5-    C7-    C9
  1275  1294  1295  1297   9   0.00   1.00416   3 ;     C2-    O5-    C7-    C9
  1275  1294  1295  1298   9   0.00   0.00000   0 ;     C2-    O5-    C7-   C10
  1275  1294  1295  1298   9   0.00   0.66944   2 ;     C2-    O5-    C7-   C10
  1275  1294  1295  1298   9   0.00   1.00416   3 ;     C2-    O5-    C7-   C10
  1275  1294  1295  1304   9   0.00   1.41001   3 ;     C2-    O5-    C7-   H16
  1276  1274  1277  1278   9   0.00   0.46024   1 ;     C3-    C1-    C4-    C5
  1276  1274  1277  1278   9   0.00   0.54392   3 ;     C3-    C1-    C4-    C5
  1276  1274  1277  1278   9   180.00   1.21336   2 ;     C3-    C1-    C4-    C5
  1276  1274  1277  1281   9   0.00   0.65084   3 ;     C3-    C1-    C4-    H4
  1276  1274  1277  1284   9   0.00   0.87864   3 ;     C3-    C1-    C4-    O1
  1276  1288  1275  1278   9   0.00   0.00000   0 ;     C3-    O3-    C2-    C5
  1276  1288  1275  1278   9   0.00   0.66944   2 ;     C3-    O3-    C2-    C5
  1276  1288  1275  1278   9   0.00   1.00416   3 ;     C3-    O3-    C2-    C5
  1276  1288  1275  1279   9   0.00   1.60387   3 ;     C3-    O3-    C2-    H2
  1276  1288  1275  1294   9   0.00   5.18816   2 ;     C3-    O3-    C2-    O5
  1276  1288  1275  1294   9   180.00   0.00000   3 ;     C3-    O3-    C2-    O5
  1276  1288  1275  1294   9   180.00   4.05848   1 ;     C3-    O3-    C2-    O5
  1276  1289  1292  1293   9   0.00   0.00000   0 ;     C3-    C6-    O4-   H11
  1277  1274  1276  1283   9   0.00   0.65084   3 ;     C4-    C1-    C3-    H6
  1277  1274  1276  1288   9   0.00   0.65084   3 ;     C4-    C1-    C3-    O3
  1277  1274  1276  1289   9   0.00   0.46024   1 ;     C4-    C1-    C3-    C6
  1277  1274  1276  1289   9   0.00   0.54392   3 ;     C4-    C1-    C3-    C6
  1277  1274  1276  1289   9   180.00   1.21336   2 ;     C4-    C1-    C3-    C6
  1277  1278  1275  1279   9   0.00   0.65084   3 ;     C4-    C5-    C2-    H2
  1277  1278  1275  1288   9   0.00   0.65084   3 ;     C4-    C5-    C2-    O3
  1277  1278  1275  1294   9   0.00   0.65084   3 ;     C4-    C5-    C2-    O5
  1277  1278  1286  1287   9   0.00   0.00000   0 ;     C4-    C5-    O2-    H8
  1278  1275  1294  1295   9   0.00   0.00000   0 ;     C5-    C2-    O5-    C7
  1278  1275  1294  1295   9   0.00   0.66944   2 ;     C5-    C2-    O5-    C7
  1278  1275  1294  1295   9   0.00   1.00416   3 ;     C5-    C2-    O5-    C7
  1278  1277  1274  1280   9   0.00   0.33472   3 ;     C5-    C4-    C1-    H3
  1278  1277  1284  1285   9   0.00   0.00000   0 ;     C5-    C4-    O1-    H7
  1279  1275  1278  1282   9   0.00   0.65084   3 ;     H2-    C2-    C5-    H5
  1279  1275  1278  1286   9   0.00   0.65084   3 ;     H2-    C2-    C5-    O2
  1279  1275  1294  1295   9   0.00   1.60387   3 ;     H2-    C2-    O5-    C7
  1280  1274  1276  1283   9   0.00   0.65084   3 ;     H3-    C1-    C3-    H6
  1280  1274  1276  1288   9   0.00   0.00000   0 ;     H3-    C1-    C3-    O3
  1280  1274  1276  1288   9   0.00   1.04600   1 ;     H3-    C1-    C3-    O3
  1280  1274  1276  1289   9   0.00   0.33472   3 ;     H3-    C1-    C3-    C6
  1280  1274  1277  1281   9   0.00   0.65084   3 ;     H3-    C1-    C4-    H4
  1280  1274  1277  1284   9   0.00   0.75312   3 ;     H3-    C1-    C4-    O1
  1280  1274  1277  1284   9   0.00   2.13384   1 ;     H3-    C1-    C4-    O1
  1281  1277  1278  1282   9   0.00   0.65084   3 ;     H4-    C4-    C5-    H5
  1281  1277  1278  1286   9   0.00   0.00000   0 ;     H4-    C4-    C5-    O2
  1281  1277  1278  1286   9   0.00   1.04600   1 ;     H4-    C4-    C5-    O2
  1281  1277  1284  1285   9   0.00   0.47279   3 ;     H4-    C4-    O1-    H7
  1282  1278  1275  1288   9   0.00   0.00000   0 ;     H5-    C5-    C2-    O3
  1282  1278  1275  1288   9   0.00   1.04600   1 ;     H5-    C5-    C2-    O3
  1282  1278  1275  1294   9   0.00   0.00000   0 ;     H5-    C5-    C2-    O5
  1282  1278  1275  1294   9   0.00   1.04600   1 ;     H5-    C5-    C2-    O5
  1282  1278  1277  1284   9   0.00   0.00000   0 ;     H5-    C5-    C4-    O1
  1282  1278  1277  1284   9   0.00   1.04600   1 ;     H5-    C5-    C4-    O1
  1282  1278  1286  1287   9   0.00   0.47279   3 ;     H5-    C5-    O2-    H8
  1283  1276  1289  1290   9   0.00   0.65084   3 ;     H6-    C3-    C6-    H9
  1283  1276  1289  1291   9   0.00   0.65084   3 ;     H6-    C3-    C6-   H10
  1283  1276  1289  1292   9   0.00   0.00000   0 ;     H6-    C3-    C6-    O4
  1283  1276  1289  1292   9   0.00   1.04600   1 ;     H6-    C3-    C6-    O4
  1284  1277  1278  1286   9   0.00   3.76560   3 ;     O1-    C4-    C5-    O2
  1284  1277  1278  1286   9   0.00   4.72792   2 ;     O1-    C4-    C5-    O2
  1286  1278  1275  1288   9   0.00   0.00000   0 ;     O2-    C5-    C2-    O3
  1286  1278  1275  1288   9   0.00   4.22584   3 ;     O2-    C5-    C2-    O3
  1286  1278  1275  1288   9   180.00   0.08368   1 ;     O2-    C5-    C2-    O3
  1286  1278  1275  1294   9   0.00   0.00000   0 ;     O2-    C5-    C2-    O5
  1286  1278  1275  1294   9   0.00   4.22584   3 ;     O2-    C5-    C2-    O5
  1286  1278  1275  1294   9   180.00   0.08368   1 ;     O2-    C5-    C2-    O5
  1288  1275  1294  1295   9   0.00   5.18816   2 ;     O3-    C2-    O5-    C7
  1288  1275  1294  1295   9   180.00   0.00000   3 ;     O3-    C2-    O5-    C7
  1288  1275  1294  1295   9   180.00   4.05848   1 ;     O3-    C2-    O5-    C7
  1288  1276  1289  1290   9   0.00   0.00000   0 ;     O3-    C3-    C6-    H9
  1288  1276  1289  1290   9   0.00   1.04600   1 ;     O3-    C3-    C6-    H9
  1288  1276  1289  1291   9   0.00   0.00000   0 ;     O3-    C3-    C6-   H10
  1288  1276  1289  1291   9   0.00   1.04600   1 ;     O3-    C3-    C6-   H10
  1288  1276  1289  1292   9   0.00   0.00000   0 ;     O3-    C3-    C6-    O4
  1288  1276  1289  1292   9   0.00   4.22584   3 ;     O3-    C3-    C6-    O4
  1288  1276  1289  1292   9   180.00   0.08368   1 ;     O3-    C3-    C6-    O4
  1290  1289  1292  1293   9   0.00   0.47279   3 ;     H9-    C6-    O4-   H11
  1291  1289  1292  1293   9   0.00   0.47279   3 ;    H10-    C6-    O4-   H11
  1294  1295  1297  1296   9   0.00   0.65084   3 ;     O5-    C7-    C9-    C8
  1294  1295  1297  1300   9   0.00   0.00000   0 ;     O5-    C7-    C9-   H12
  1294  1295  1297  1300   9   0.00   1.04600   1 ;     O5-    C7-    C9-   H12
  1294  1295  1297  1313   9   0.00   0.00000   0 ;     O5-    C7-    C9-    O9
  1294  1295  1297  1313   9   0.00   4.22584   3 ;     O5-    C7-    C9-    O9
  1294  1295  1297  1313   9   180.00   0.08368   1 ;     O5-    C7-    C9-    O9
  1294  1295  1298  1302   9   0.00   0.00000   0 ;     O5-    C7-   C10-   H14
  1294  1295  1298  1302   9   0.00   1.04600   1 ;     O5-    C7-   C10-   H14
  1294  1295  1298  1305   9   0.00   0.00000   0 ;     O5-    C7-   C10-    O6
  1294  1295  1298  1305   9   180.00   0.00000   2 ;     O5-    C7-   C10-    O6
  1294  1295  1298  1305   9   180.00   0.71128   1 ;     O5-    C7-   C10-    O6
  1294  1295  1298  1306   9   0.00   0.65084   3 ;     O5-    C7-   C10-   C12
  1295  1297  1296  1299   9   0.00   0.46024   1 ;     C7-    C9-    C8-   C11
  1295  1297  1296  1299   9   0.00   0.54392   3 ;     C7-    C9-    C8-   C11
  1295  1297  1296  1299   9   180.00   1.21336   2 ;     C7-    C9-    C8-   C11
  1295  1297  1296  1301   9   0.00   0.65084   3 ;     C7-    C9-    C8-   H13
  1295  1297  1296  1311   9   0.00   0.87864   3 ;     C7-    C9-    C8-    O8
  1295  1297  1313  1314   9   0.00   0.00000   0 ;     C7-    C9-    O9-   H21
  1295  1298  1305  1299   9   0.00   0.00000   0 ;     C7-   C10-    O6-   C11
  1295  1298  1305  1299   9   0.00   0.66944   2 ;     C7-   C10-    O6-   C11
  1295  1298  1305  1299   9   0.00   1.00416   3 ;     C7-   C10-    O6-   C11
  1295  1298  1306  1307   9   0.00   0.65084   3 ;     C7-   C10-   C12-   H17
  1295  1298  1306  1308   9   0.00   0.65084   3 ;     C7-   C10-   C12-   H18
  1295  1298  1306  1309   9   0.00   0.87864   3 ;     C7-   C10-   C12-    O7
  1296  1297  1295  1298   9   0.00   0.46024   1 ;     C8-    C9-    C7-   C10
  1296  1297  1295  1298   9   0.00   0.54392   3 ;     C8-    C9-    C7-   C10
  1296  1297  1295  1298   9   180.00   1.21336   2 ;     C8-    C9-    C7-   C10
  1296  1297  1295  1304   9   0.00   0.65084   3 ;     C8-    C9-    C7-   H16
  1296  1297  1313  1314   9   0.00   0.00000   0 ;     C8-    C9-    O9-   H21
  1296  1299  1305  1298   9   0.00   0.00000   0 ;     C8-   C11-    O6-   C10
  1296  1299  1305  1298   9   0.00   0.66944   2 ;     C8-   C11-    O6-   C10
  1296  1299  1305  1298   9   0.00   1.00416   3 ;     C8-   C11-    O6-   C10
  1296  1299  1315  1316   9   0.00   0.00000   0 ;     C8-   C11-   O10-   C13
  1296  1299  1315  1316   9   0.00   0.66944   2 ;     C8-   C11-   O10-   C13
  1296  1299  1315  1316   9   0.00   1.00416   3 ;     C8-   C11-   O10-   C13
  1297  1295  1298  1302   9   0.00   0.65084   3 ;     C9-    C7-   C10-   H14
  1297  1295  1298  1305   9   0.00   0.65084   3 ;     C9-    C7-   C10-    O6
  1297  1295  1298  1306   9   0.00   0.46024   1 ;     C9-    C7-   C10-   C12
  1297  1295  1298  1306   9   0.00   0.54392   3 ;     C9-    C7-   C10-   C12
  1297  1295  1298  1306   9   180.00   1.21336   2 ;     C9-    C7-   C10-   C12
  1297  1296  1299  1303   9   0.00   0.65084   3 ;     C9-    C8-   C11-   H15
  1297  1296  1299  1305   9   0.00   0.65084   3 ;     C9-    C8-   C11-    O6
  1297  1296  1299  1315   9   0.00   0.65084   3 ;     C9-    C8-   C11-   O10
  1297  1296  1311  1312   9   0.00   0.00000   0 ;     C9-    C8-    O8-   H20
  1298  1295  1297  1300   9   0.00   0.65084   3 ;    C10-    C7-    C9-   H12
  1298  1295  1297  1313   9   0.00   0.87864   3 ;    C10-    C7-    C9-    O9
  1298  1305  1299  1303   9   0.00   1.60387   3 ;    C10-    O6-   C11-   H15
  1298  1305  1299  1315   9   0.00   5.18816   2 ;    C10-    O6-   C11-   O10
  1298  1305  1299  1315   9   180.00   0.00000   3 ;    C10-    O6-   C11-   O10
  1298  1305  1299  1315   9   180.00   4.05848   1 ;    C10-    O6-   C11-   O10
  1298  1306  1309  1310   9   0.00   0.00000   0 ;    C10-   C12-    O7-   H19
  1299  1296  1297  1300   9   0.00   0.65084   3 ;    C11-    C8-    C9-   H12
  1299  1296  1297  1313   9   0.00   0.87864   3 ;    C11-    C8-    C9-    O9
  1299  1296  1311  1312   9   0.00   0.00000   0 ;    C11-    C8-    O8-   H20
  1299  1305  1298  1302   9   0.00   1.41001   3 ;    C11-    O6-   C10-   H14
  1299  1305  1298  1306   9   0.00   0.00000   0 ;    C11-    O6-   C10-   C12
  1299  1305  1298  1306   9   0.00   0.66944   2 ;    C11-    O6-   C10-   C12
  1299  1305  1298  1306   9   0.00   1.00416   3 ;    C11-    O6-   C10-   C12
  1299  1315  1316  1318   9   0.00   0.00000   0 ;    C11-   O10-   C13-   C15
  1299  1315  1316  1318   9   0.00   0.66944   2 ;    C11-   O10-   C13-   C15
  1299  1315  1316  1318   9   0.00   1.00416   3 ;    C11-   O10-   C13-   C15
  1299  1315  1316  1319   9   0.00   0.00000   0 ;    C11-   O10-   C13-   C16
  1299  1315  1316  1319   9   0.00   0.66944   2 ;    C11-   O10-   C13-   C16
  1299  1315  1316  1319   9   0.00   1.00416   3 ;    C11-   O10-   C13-   C16
  1299  1315  1316  1322   9   0.00   1.41001   3 ;    C11-   O10-   C13-   H23
  1300  1297  1295  1304   9   0.00   0.65084   3 ;    H12-    C9-    C7-   H16
  1300  1297  1296  1301   9   0.00   0.65084   3 ;    H12-    C9-    C8-   H13
  1300  1297  1296  1311   9   0.00   0.00000   0 ;    H12-    C9-    C8-    O8
  1300  1297  1296  1311   9   0.00   1.04600   1 ;    H12-    C9-    C8-    O8
  1300  1297  1313  1314   9   0.00   0.47279   3 ;    H12-    C9-    O9-   H21
  1301  1296  1297  1313   9   0.00   0.00000   0 ;    H13-    C8-    C9-    O9
  1301  1296  1297  1313   9   0.00   1.04600   1 ;    H13-    C8-    C9-    O9
  1301  1296  1299  1303   9   0.00   0.65084   3 ;    H13-    C8-   C11-   H15
  1301  1296  1299  1305   9   0.00   0.00000   0 ;    H13-    C8-   C11-    O6
  1301  1296  1299  1305   9   0.00   1.04600   1 ;    H13-    C8-   C11-    O6
  1301  1296  1299  1315   9   0.00   0.00000   0 ;    H13-    C8-   C11-   O10
  1301  1296  1299  1315   9   0.00   1.04600   1 ;    H13-    C8-   C11-   O10
  1301  1296  1311  1312   9   0.00   0.47279   3 ;    H13-    C8-    O8-   H20
  1302  1298  1295  1304   9   0.00   0.65084   3 ;    H14-   C10-    C7-   H16
  1302  1298  1306  1307   9   0.00   0.65084   3 ;    H14-   C10-   C12-   H17
  1302  1298  1306  1308   9   0.00   0.65084   3 ;    H14-   C10-   C12-   H18
  1302  1298  1306  1309   9   0.00   0.00000   0 ;    H14-   C10-   C12-    O7
  1302  1298  1306  1309   9   0.00   1.04600   1 ;    H14-   C10-   C12-    O7
  1303  1299  1296  1311   9   0.00   0.65084   3 ;    H15-   C11-    C8-    O8
  1303  1299  1315  1316   9   0.00   1.60387   3 ;    H15-   C11-   O10-   C13
  1304  1295  1297  1313   9   0.00   0.00000   0 ;    H16-    C7-    C9-    O9
  1304  1295  1297  1313   9   0.00   1.04600   1 ;    H16-    C7-    C9-    O9
  1304  1295  1298  1305   9   0.00   0.00000   0 ;    H16-    C7-   C10-    O6
  1304  1295  1298  1305   9   0.00   1.04600   1 ;    H16-    C7-   C10-    O6
  1304  1295  1298  1306   9   0.00   0.65084   3 ;    H16-    C7-   C10-   C12
  1305  1298  1306  1307   9   0.00   0.00000   0 ;     O6-   C10-   C12-   H17
  1305  1298  1306  1307   9   0.00   1.04600   1 ;     O6-   C10-   C12-   H17
  1305  1298  1306  1308   9   0.00   0.00000   0 ;     O6-   C10-   C12-   H18
  1305  1298  1306  1308   9   0.00   1.04600   1 ;     O6-   C10-   C12-   H18
  1305  1298  1306  1309   9   0.00   0.00000   0 ;     O6-   C10-   C12-    O7
  1305  1298  1306  1309   9   0.00   4.22584   3 ;     O6-   C10-   C12-    O7
  1305  1298  1306  1309   9   180.00   0.08368   1 ;     O6-   C10-   C12-    O7
  1305  1299  1296  1311   9   0.00   0.00000   0 ;     O6-   C11-    C8-    O8
  1305  1299  1296  1311   9   0.00   4.22584   3 ;     O6-   C11-    C8-    O8
  1305  1299  1296  1311   9   180.00   0.08368   1 ;     O6-   C11-    C8-    O8
  1305  1299  1315  1316   9   0.00   5.18816   2 ;     O6-   C11-   O10-   C13
  1305  1299  1315  1316   9   180.00   0.00000   3 ;     O6-   C11-   O10-   C13
  1305  1299  1315  1316   9   180.00   4.05848   1 ;     O6-   C11-   O10-   C13
  1307  1306  1309  1310   9   0.00   0.47279   3 ;    H17-   C12-    O7-   H19
  1308  1306  1309  1310   9   0.00   0.47279   3 ;    H18-   C12-    O7-   H19
  1311  1296  1297  1313   9   0.00   3.76560   3 ;     O8-    C8-    C9-    O9
  1311  1296  1297  1313   9   0.00   4.72792   2 ;     O8-    C8-    C9-    O9
  1311  1296  1299  1315   9   0.00   0.00000   0 ;     O8-    C8-   C11-   O10
  1311  1296  1299  1315   9   0.00   4.22584   3 ;     O8-    C8-   C11-   O10
  1311  1296  1299  1315   9   180.00   0.08368   1 ;     O8-    C8-   C11-   O10
  1315  1316  1318  1325   9   0.00   0.00000   0 ;    O10-   C13-   C15-   H26
  1315  1316  1318  1325   9   0.00   1.04600   1 ;    O10-   C13-   C15-   H26
  1315  1316  1318  1330   9   0.00   0.00000   0 ;    O10-   C13-   C15-   O13
  1315  1316  1318  1330   9   180.00   0.00000   2 ;    O10-   C13-   C15-   O13
  1315  1316  1318  1330   9   180.00   0.71128   1 ;    O10-   C13-   C15-   O13
  1315  1316  1318  1331   9   0.00   0.65084   3 ;    O10-   C13-   C15-   C18
  1315  1316  1319  1320   9   0.00   0.65084   3 ;    O10-   C13-   C16-   C17
  1315  1316  1319  1323   9   0.00   0.00000   0 ;    O10-   C13-   C16-   H24
  1315  1316  1319  1323   9   0.00   1.04600   1 ;    O10-   C13-   C16-   H24
  1315  1316  1319  1326   9   0.00   0.00000   0 ;    O10-   C13-   C16-   O11
  1315  1316  1319  1326   9   0.00   4.22584   3 ;    O10-   C13-   C16-   O11
  1315  1316  1319  1326   9   180.00   0.08368   1 ;    O10-   C13-   C16-   O11
  1316  1318  1330  1317   9   0.00   0.00000   0 ;    C13-   C15-   O13-   C14
  1316  1318  1330  1317   9   0.00   0.66944   2 ;    C13-   C15-   O13-   C14
  1316  1318  1330  1317   9   0.00   1.00416   3 ;    C13-   C15-   O13-   C14
  1316  1318  1331  1332   9   0.00   0.65084   3 ;    C13-   C15-   C18-   H29
  1316  1318  1331  1333   9   0.00   0.65084   3 ;    C13-   C15-   C18-   H30
  1316  1318  1331  1334   9   0.00   0.87864   3 ;    C13-   C15-   C18-   O14
  1316  1319  1320  1317   9   0.00   0.46024   1 ;    C13-   C16-   C17-   C14
  1316  1319  1320  1317   9   0.00   0.54392   3 ;    C13-   C16-   C17-   C14
  1316  1319  1320  1317   9   180.00   1.21336   2 ;    C13-   C16-   C17-   C14
  1316  1319  1320  1324   9   0.00   0.65084   3 ;    C13-   C16-   C17-   H25
  1316  1319  1320  1328   9   0.00   0.87864   3 ;    C13-   C16-   C17-   O12
  1316  1319  1326  1327   9   0.00   0.00000   0 ;    C13-   C16-   O11-   H27
  1317  1320  1319  1323   9   0.00   0.65084   3 ;    C14-   C17-   C16-   H24
  1317  1320  1319  1326   9   0.00   0.87864   3 ;    C14-   C17-   C16-   O11
  1317  1320  1328  1329   9   0.00   0.00000   0 ;    C14-   C17-   O12-   H28
  1317  1330  1318  1325   9   0.00   1.41001   3 ;    C14-   O13-   C15-   H26
  1317  1330  1318  1331   9   0.00   0.00000   0 ;    C14-   O13-   C15-   C18
  1317  1330  1318  1331   9   0.00   0.66944   2 ;    C14-   O13-   C15-   C18
  1317  1330  1318  1331   9   0.00   1.00416   3 ;    C14-   O13-   C15-   C18
  1317  1336  1337  1339   9   0.00   0.00000   0 ;    C14-   O15-   C19-   C21
  1317  1336  1337  1339   9   0.00   0.66944   2 ;    C14-   O15-   C19-   C21
  1317  1336  1337  1339   9   0.00   1.00416   3 ;    C14-   O15-   C19-   C21
  1317  1336  1337  1340   9   0.00   0.00000   0 ;    C14-   O15-   C19-   C22
  1317  1336  1337  1340   9   0.00   0.66944   2 ;    C14-   O15-   C19-   C22
  1317  1336  1337  1340   9   0.00   1.00416   3 ;    C14-   O15-   C19-   C22
  1317  1336  1337  1346   9   0.00   1.41001   3 ;    C14-   O15-   C19-   H36
  1318  1316  1319  1320   9   0.00   0.46024   1 ;    C15-   C13-   C16-   C17
  1318  1316  1319  1320   9   0.00   0.54392   3 ;    C15-   C13-   C16-   C17
  1318  1316  1319  1320   9   180.00   1.21336   2 ;    C15-   C13-   C16-   C17
  1318  1316  1319  1323   9   0.00   0.65084   3 ;    C15-   C13-   C16-   H24
  1318  1316  1319  1326   9   0.00   0.87864   3 ;    C15-   C13-   C16-   O11
  1318  1330  1317  1320   9   0.00   0.00000   0 ;    C15-   O13-   C14-   C17
  1318  1330  1317  1320   9   0.00   0.66944   2 ;    C15-   O13-   C14-   C17
  1318  1330  1317  1320   9   0.00   1.00416   3 ;    C15-   O13-   C14-   C17
  1318  1330  1317  1321   9   0.00   1.60387   3 ;    C15-   O13-   C14-   H22
  1318  1330  1317  1336   9   0.00   5.18816   2 ;    C15-   O13-   C14-   O15
  1318  1330  1317  1336   9   180.00   0.00000   3 ;    C15-   O13-   C14-   O15
  1318  1330  1317  1336   9   180.00   4.05848   1 ;    C15-   O13-   C14-   O15
  1318  1331  1334  1335   9   0.00   0.00000   0 ;    C15-   C18-   O14-   H31
  1319  1316  1318  1325   9   0.00   0.65084   3 ;    C16-   C13-   C15-   H26
  1319  1316  1318  1330   9   0.00   0.65084   3 ;    C16-   C13-   C15-   O13
  1319  1316  1318  1331   9   0.00   0.46024   1 ;    C16-   C13-   C15-   C18
  1319  1316  1318  1331   9   0.00   0.54392   3 ;    C16-   C13-   C15-   C18
  1319  1316  1318  1331   9   180.00   1.21336   2 ;    C16-   C13-   C15-   C18
  1319  1320  1317  1321   9   0.00   0.65084   3 ;    C16-   C17-   C14-   H22
  1319  1320  1317  1330   9   0.00   0.65084   3 ;    C16-   C17-   C14-   O13
  1319  1320  1317  1336   9   0.00   0.65084   3 ;    C16-   C17-   C14-   O15
  1319  1320  1328  1329   9   0.00   0.00000   0 ;    C16-   C17-   O12-   H28
  1320  1317  1336  1337   9   0.00   0.00000   0 ;    C17-   C14-   O15-   C19
  1320  1317  1336  1337   9   0.00   0.66944   2 ;    C17-   C14-   O15-   C19
  1320  1317  1336  1337   9   0.00   1.00416   3 ;    C17-   C14-   O15-   C19
  1320  1319  1316  1322   9   0.00   0.65084   3 ;    C17-   C16-   C13-   H23
  1320  1319  1326  1327   9   0.00   0.00000   0 ;    C17-   C16-   O11-   H27
  1321  1317  1320  1324   9   0.00   0.65084   3 ;    H22-   C14-   C17-   H25
  1321  1317  1320  1328   9   0.00   0.65084   3 ;    H22-   C14-   C17-   O12
  1321  1317  1336  1337   9   0.00   1.60387   3 ;    H22-   C14-   O15-   C19
  1322  1316  1318  1325   9   0.00   0.65084   3 ;    H23-   C13-   C15-   H26
  1322  1316  1318  1330   9   0.00   0.00000   0 ;    H23-   C13-   C15-   O13
  1322  1316  1318  1330   9   0.00   1.04600   1 ;    H23-   C13-   C15-   O13
  1322  1316  1318  1331   9   0.00   0.65084   3 ;    H23-   C13-   C15-   C18
  1322  1316  1319  1323   9   0.00   0.65084   3 ;    H23-   C13-   C16-   H24
  1322  1316  1319  1326   9   0.00   0.00000   0 ;    H23-   C13-   C16-   O11
  1322  1316  1319  1326   9   0.00   1.04600   1 ;    H23-   C13-   C16-   O11
  1323  1319  1320  1324   9   0.00   0.65084   3 ;    H24-   C16-   C17-   H25
  1323  1319  1320  1328   9   0.00   0.00000   0 ;    H24-   C16-   C17-   O12
  1323  1319  1320  1328   9   0.00   1.04600   1 ;    H24-   C16-   C17-   O12
  1323  1319  1326  1327   9   0.00   0.47279   3 ;    H24-   C16-   O11-   H27
  1324  1320  1317  1330   9   0.00   0.00000   0 ;    H25-   C17-   C14-   O13
  1324  1320  1317  1330   9   0.00   1.04600   1 ;    H25-   C17-   C14-   O13
  1324  1320  1317  1336   9   0.00   0.00000   0 ;    H25-   C17-   C14-   O15
  1324  1320  1317  1336   9   0.00   1.04600   1 ;    H25-   C17-   C14-   O15
  1324  1320  1319  1326   9   0.00   0.00000   0 ;    H25-   C17-   C16-   O11
  1324  1320  1319  1326   9   0.00   1.04600   1 ;    H25-   C17-   C16-   O11
  1324  1320  1328  1329   9   0.00   0.47279   3 ;    H25-   C17-   O12-   H28
  1325  1318  1331  1332   9   0.00   0.65084   3 ;    H26-   C15-   C18-   H29
  1325  1318  1331  1333   9   0.00   0.65084   3 ;    H26-   C15-   C18-   H30
  1325  1318  1331  1334   9   0.00   0.00000   0 ;    H26-   C15-   C18-   O14
  1325  1318  1331  1334   9   0.00   1.04600   1 ;    H26-   C15-   C18-   O14
  1326  1319  1320  1328   9   0.00   3.76560   3 ;    O11-   C16-   C17-   O12
  1326  1319  1320  1328   9   0.00   4.72792   2 ;    O11-   C16-   C17-   O12
  1328  1320  1317  1330   9   0.00   0.00000   0 ;    O12-   C17-   C14-   O13
  1328  1320  1317  1330   9   0.00   4.22584   3 ;    O12-   C17-   C14-   O13
  1328  1320  1317  1330   9   180.00   0.08368   1 ;    O12-   C17-   C14-   O13
  1328  1320  1317  1336   9   0.00   0.00000   0 ;    O12-   C17-   C14-   O15
  1328  1320  1317  1336   9   0.00   4.22584   3 ;    O12-   C17-   C14-   O15
  1328  1320  1317  1336   9   180.00   0.08368   1 ;    O12-   C17-   C14-   O15
  1330  1317  1336  1337   9   0.00   5.18816   2 ;    O13-   C14-   O15-   C19
  1330  1317  1336  1337   9   180.00   0.00000   3 ;    O13-   C14-   O15-   C19
  1330  1317  1336  1337   9   180.00   4.05848   1 ;    O13-   C14-   O15-   C19
  1330  1318  1331  1332   9   0.00   0.00000   0 ;    O13-   C15-   C18-   H29
  1330  1318  1331  1332   9   0.00   1.04600   1 ;    O13-   C15-   C18-   H29
  1330  1318  1331  1333   9   0.00   0.00000   0 ;    O13-   C15-   C18-   H30
  1330  1318  1331  1333   9   0.00   1.04600   1 ;    O13-   C15-   C18-   H30
  1330  1318  1331  1334   9   0.00   0.00000   0 ;    O13-   C15-   C18-   O14
  1330  1318  1331  1334   9   0.00   4.22584   3 ;    O13-   C15-   C18-   O14
  1330  1318  1331  1334   9   180.00   0.08368   1 ;    O13-   C15-   C18-   O14
  1332  1331  1334  1335   9   0.00   0.47279   3 ;    H29-   C18-   O14-   H31
  1333  1331  1334  1335   9   0.00   0.47279   3 ;    H30-   C18-   O14-   H31
  1336  1337  1339  1338   9   0.00   0.65084   3 ;    O15-   C19-   C21-   C20
  1336  1337  1339  1342   9   0.00   0.00000   0 ;    O15-   C19-   C21-   H32
  1336  1337  1339  1342   9   0.00   1.04600   1 ;    O15-   C19-   C21-   H32
  1336  1337  1339  1355   9   0.00   0.00000   0 ;    O15-   C19-   C21-   O19
  1336  1337  1339  1355   9   0.00   4.22584   3 ;    O15-   C19-   C21-   O19
  1336  1337  1339  1355   9   180.00   0.08368   1 ;    O15-   C19-   C21-   O19
  1336  1337  1340  1344   9   0.00   0.00000   0 ;    O15-   C19-   C22-   H34
  1336  1337  1340  1344   9   0.00   1.04600   1 ;    O15-   C19-   C22-   H34
  1336  1337  1340  1347   9   0.00   0.00000   0 ;    O15-   C19-   C22-   O16
  1336  1337  1340  1347   9   180.00   0.00000   2 ;    O15-   C19-   C22-   O16
  1336  1337  1340  1347   9   180.00   0.71128   1 ;    O15-   C19-   C22-   O16
  1336  1337  1340  1348   9   0.00   0.65084   3 ;    O15-   C19-   C22-   C24
  1337  1339  1338  1341   9   0.00   0.46024   1 ;    C19-   C21-   C20-   C23
  1337  1339  1338  1341   9   0.00   0.54392   3 ;    C19-   C21-   C20-   C23
  1337  1339  1338  1341   9   180.00   1.21336   2 ;    C19-   C21-   C20-   C23
  1337  1339  1338  1343   9   0.00   0.65084   3 ;    C19-   C21-   C20-   H33
  1337  1339  1338  1353   9   0.00   0.87864   3 ;    C19-   C21-   C20-   O18
  1337  1339  1355  1356   9   0.00   0.00000   0 ;    C19-   C21-   O19-   H41
  1337  1340  1347  1341   9   0.00   0.00000   0 ;    C19-   C22-   O16-   C23
  1337  1340  1347  1341   9   0.00   0.66944   2 ;    C19-   C22-   O16-   C23
  1337  1340  1347  1341   9   0.00   1.00416   3 ;    C19-   C22-   O16-   C23
  1337  1340  1348  1349   9   0.00   0.65084   3 ;    C19-   C22-   C24-   H37
  1337  1340  1348  1350   9   0.00   0.65084   3 ;    C19-   C22-   C24-   H38
  1337  1340  1348  1351   9   0.00   0.87864   3 ;    C19-   C22-   C24-   O17
  1338  1339  1337  1340   9   0.00   0.46024   1 ;    C20-   C21-   C19-   C22
  1338  1339  1337  1340   9   0.00   0.54392   3 ;    C20-   C21-   C19-   C22
  1338  1339  1337  1340   9   180.00   1.21336   2 ;    C20-   C21-   C19-   C22
  1338  1339  1337  1346   9   0.00   0.65084   3 ;    C20-   C21-   C19-   H36
  1338  1339  1355  1356   9   0.00   0.00000   0 ;    C20-   C21-   O19-   H41
  1338  1341  1347  1340   9   0.00   0.00000   0 ;    C20-   C23-   O16-   C22
  1338  1341  1347  1340   9   0.00   0.66944   2 ;    C20-   C23-   O16-   C22
  1338  1341  1347  1340   9   0.00   1.00416   3 ;    C20-   C23-   O16-   C22
  1338  1341  1357  1358   9   0.00   0.00000   0 ;    C20-   C23-   O20-   C25
  1338  1341  1357  1358   9   0.00   0.66944   2 ;    C20-   C23-   O20-   C25
  1338  1341  1357  1358   9   0.00   1.00416   3 ;    C20-   C23-   O20-   C25
  1339  1337  1340  1344   9   0.00   0.65084   3 ;    C21-   C19-   C22-   H34
  1339  1337  1340  1347   9   0.00   0.65084   3 ;    C21-   C19-   C22-   O16
  1339  1337  1340  1348   9   0.00   0.46024   1 ;    C21-   C19-   C22-   C24
  1339  1337  1340  1348   9   0.00   0.54392   3 ;    C21-   C19-   C22-   C24
  1339  1337  1340  1348   9   180.00   1.21336   2 ;    C21-   C19-   C22-   C24
  1339  1338  1341  1345   9   0.00   0.65084   3 ;    C21-   C20-   C23-   H35
  1339  1338  1341  1347   9   0.00   0.65084   3 ;    C21-   C20-   C23-   O16
  1339  1338  1341  1357   9   0.00   0.65084   3 ;    C21-   C20-   C23-   O20
  1339  1338  1353  1354   9   0.00   0.00000   0 ;    C21-   C20-   O18-   H40
  1340  1337  1339  1342   9   0.00   0.65084   3 ;    C22-   C19-   C21-   H32
  1340  1337  1339  1355   9   0.00   0.87864   3 ;    C22-   C19-   C21-   O19
  1340  1347  1341  1345   9   0.00   1.60387   3 ;    C22-   O16-   C23-   H35
  1340  1347  1341  1357   9   0.00   5.18816   2 ;    C22-   O16-   C23-   O20
  1340  1347  1341  1357   9   180.00   0.00000   3 ;    C22-   O16-   C23-   O20
  1340  1347  1341  1357   9   180.00   4.05848   1 ;    C22-   O16-   C23-   O20
  1340  1348  1351  1352   9   0.00   0.00000   0 ;    C22-   C24-   O17-   H39
  1341  1338  1339  1342   9   0.00   0.65084   3 ;    C23-   C20-   C21-   H32
  1341  1338  1339  1355   9   0.00   0.87864   3 ;    C23-   C20-   C21-   O19
  1341  1338  1353  1354   9   0.00   0.00000   0 ;    C23-   C20-   O18-   H40
  1341  1347  1340  1344   9   0.00   1.41001   3 ;    C23-   O16-   C22-   H34
  1341  1347  1340  1348   9   0.00   0.00000   0 ;    C23-   O16-   C22-   C24
  1341  1347  1340  1348   9   0.00   0.66944   2 ;    C23-   O16-   C22-   C24
  1341  1347  1340  1348   9   0.00   1.00416   3 ;    C23-   O16-   C22-   C24
  1341  1357  1358  1360   9   0.00   0.00000   0 ;    C23-   O20-   C25-   C27
  1341  1357  1358  1360   9   0.00   0.66944   2 ;    C23-   O20-   C25-   C27
  1341  1357  1358  1360   9   0.00   1.00416   3 ;    C23-   O20-   C25-   C27
  1341  1357  1358  1361   9   0.00   0.00000   0 ;    C23-   O20-   C25-   C28
  1341  1357  1358  1361   9   0.00   0.66944   2 ;    C23-   O20-   C25-   C28
  1341  1357  1358  1361   9   0.00   1.00416   3 ;    C23-   O20-   C25-   C28
  1341  1357  1358  1364   9   0.00   1.41001   3 ;    C23-   O20-   C25-   H43
  1342  1339  1337  1346   9   0.00   0.65084   3 ;    H32-   C21-   C19-   H36
  1342  1339  1338  1343   9   0.00   0.65084   3 ;    H32-   C21-   C20-   H33
  1342  1339  1338  1353   9   0.00   0.00000   0 ;    H32-   C21-   C20-   O18
  1342  1339  1338  1353   9   0.00   1.04600   1 ;    H32-   C21-   C20-   O18
  1342  1339  1355  1356   9   0.00   0.47279   3 ;    H32-   C21-   O19-   H41
  1343  1338  1339  1355   9   0.00   0.00000   0 ;    H33-   C20-   C21-   O19
  1343  1338  1339  1355   9   0.00   1.04600   1 ;    H33-   C20-   C21-   O19
  1343  1338  1341  1345   9   0.00   0.65084   3 ;    H33-   C20-   C23-   H35
  1343  1338  1341  1347   9   0.00   0.00000   0 ;    H33-   C20-   C23-   O16
  1343  1338  1341  1347   9   0.00   1.04600   1 ;    H33-   C20-   C23-   O16
  1343  1338  1341  1357   9   0.00   0.00000   0 ;    H33-   C20-   C23-   O20
  1343  1338  1341  1357   9   0.00   1.04600   1 ;    H33-   C20-   C23-   O20
  1343  1338  1353  1354   9   0.00   0.47279   3 ;    H33-   C20-   O18-   H40
  1344  1340  1337  1346   9   0.00   0.65084   3 ;    H34-   C22-   C19-   H36
  1344  1340  1348  1349   9   0.00   0.65084   3 ;    H34-   C22-   C24-   H37
  1344  1340  1348  1350   9   0.00   0.65084   3 ;    H34-   C22-   C24-   H38
  1344  1340  1348  1351   9   0.00   0.00000   0 ;    H34-   C22-   C24-   O17
  1344  1340  1348  1351   9   0.00   1.04600   1 ;    H34-   C22-   C24-   O17
  1345  1341  1338  1353   9   0.00   0.65084   3 ;    H35-   C23-   C20-   O18
  1345  1341  1357  1358   9   0.00   1.60387   3 ;    H35-   C23-   O20-   C25
  1346  1337  1339  1355   9   0.00   0.00000   0 ;    H36-   C19-   C21-   O19
  1346  1337  1339  1355   9   0.00   1.04600   1 ;    H36-   C19-   C21-   O19
  1346  1337  1340  1347   9   0.00   0.00000   0 ;    H36-   C19-   C22-   O16
  1346  1337  1340  1347   9   0.00   1.04600   1 ;    H36-   C19-   C22-   O16
  1346  1337  1340  1348   9   0.00   0.65084   3 ;    H36-   C19-   C22-   C24
  1347  1340  1348  1349   9   0.00   0.00000   0 ;    O16-   C22-   C24-   H37
  1347  1340  1348  1349   9   0.00   1.04600   1 ;    O16-   C22-   C24-   H37
  1347  1340  1348  1350   9   0.00   0.00000   0 ;    O16-   C22-   C24-   H38
  1347  1340  1348  1350   9   0.00   1.04600   1 ;    O16-   C22-   C24-   H38
  1347  1340  1348  1351   9   0.00   0.00000   0 ;    O16-   C22-   C24-   O17
  1347  1340  1348  1351   9   0.00   4.22584   3 ;    O16-   C22-   C24-   O17
  1347  1340  1348  1351   9   180.00   0.08368   1 ;    O16-   C22-   C24-   O17
  1347  1341  1338  1353   9   0.00   0.00000   0 ;    O16-   C23-   C20-   O18
  1347  1341  1338  1353   9   0.00   4.22584   3 ;    O16-   C23-   C20-   O18
  1347  1341  1338  1353   9   180.00   0.08368   1 ;    O16-   C23-   C20-   O18
  1347  1341  1357  1358   9   0.00   5.18816   2 ;    O16-   C23-   O20-   C25
  1347  1341  1357  1358   9   180.00   0.00000   3 ;    O16-   C23-   O20-   C25
  1347  1341  1357  1358   9   180.00   4.05848   1 ;    O16-   C23-   O20-   C25
  1349  1348  1351  1352   9   0.00   0.47279   3 ;    H37-   C24-   O17-   H39
  1350  1348  1351  1352   9   0.00   0.47279   3 ;    H38-   C24-   O17-   H39
  1353  1338  1339  1355   9   0.00   3.76560   3 ;    O18-   C20-   C21-   O19
  1353  1338  1339  1355   9   0.00   4.72792   2 ;    O18-   C20-   C21-   O19
  1353  1338  1341  1357   9   0.00   0.00000   0 ;    O18-   C20-   C23-   O20
  1353  1338  1341  1357   9   0.00   4.22584   3 ;    O18-   C20-   C23-   O20
  1353  1338  1341  1357   9   180.00   0.08368   1 ;    O18-   C20-   C23-   O20
  1357  1358  1360  1367   9   0.00   0.00000   0 ;    O20-   C25-   C27-   H46
  1357  1358  1360  1367   9   0.00   1.04600   1 ;    O20-   C25-   C27-   H46
  1357  1358  1360  1372   9   0.00   0.00000   0 ;    O20-   C25-   C27-   O23
  1357  1358  1360  1372   9   180.00   0.00000   2 ;    O20-   C25-   C27-   O23
  1357  1358  1360  1372   9   180.00   0.71128   1 ;    O20-   C25-   C27-   O23
  1357  1358  1360  1373   9   0.00   0.65084   3 ;    O20-   C25-   C27-   C30
  1357  1358  1361  1362   9   0.00   0.65084   3 ;    O20-   C25-   C28-   C29
  1357  1358  1361  1365   9   0.00   0.00000   0 ;    O20-   C25-   C28-   H44
  1357  1358  1361  1365   9   0.00   1.04600   1 ;    O20-   C25-   C28-   H44
  1357  1358  1361  1368   9   0.00   0.00000   0 ;    O20-   C25-   C28-   O21
  1357  1358  1361  1368   9   0.00   4.22584   3 ;    O20-   C25-   C28-   O21
  1357  1358  1361  1368   9   180.00   0.08368   1 ;    O20-   C25-   C28-   O21
  1358  1360  1372  1359   9   0.00   0.00000   0 ;    C25-   C27-   O23-   C26
  1358  1360  1372  1359   9   0.00   0.66944   2 ;    C25-   C27-   O23-   C26
  1358  1360  1372  1359   9   0.00   1.00416   3 ;    C25-   C27-   O23-   C26
  1358  1360  1373  1374   9   0.00   0.65084   3 ;    C25-   C27-   C30-   H49
  1358  1360  1373  1375   9   0.00   0.65084   3 ;    C25-   C27-   C30-   H50
  1358  1360  1373  1376   9   0.00   0.87864   3 ;    C25-   C27-   C30-   O24
  1358  1361  1362  1359   9   0.00   0.46024   1 ;    C25-   C28-   C29-   C26
  1358  1361  1362  1359   9   0.00   0.54392   3 ;    C25-   C28-   C29-   C26
  1358  1361  1362  1359   9   180.00   1.21336   2 ;    C25-   C28-   C29-   C26
  1358  1361  1362  1366   9   0.00   0.65084   3 ;    C25-   C28-   C29-   H45
  1358  1361  1362  1370   9   0.00   0.87864   3 ;    C25-   C28-   C29-   O22
  1358  1361  1368  1369   9   0.00   0.00000   0 ;    C25-   C28-   O21-   H47
  1359  1362  1361  1365   9   0.00   0.65084   3 ;    C26-   C29-   C28-   H44
  1359  1362  1361  1368   9   0.00   0.87864   3 ;    C26-   C29-   C28-   O21
  1359  1362  1370  1371   9   0.00   0.00000   0 ;    C26-   C29-   O22-   H48
  1359  1372  1360  1367   9   0.00   1.41001   3 ;    C26-   O23-   C27-   H46
  1359  1372  1360  1373   9   0.00   0.00000   0 ;    C26-   O23-   C27-   C30
  1359  1372  1360  1373   9   0.00   0.66944   2 ;    C26-   O23-   C27-   C30
  1359  1372  1360  1373   9   0.00   1.00416   3 ;    C26-   O23-   C27-   C30
  1359  1378  1379  1381   9   0.00   0.00000   0 ;    C26-   O25-   C31-   C33
  1359  1378  1379  1381   9   0.00   0.66944   2 ;    C26-   O25-   C31-   C33
  1359  1378  1379  1381   9   0.00   1.00416   3 ;    C26-   O25-   C31-   C33
  1359  1378  1379  1382   9   0.00   0.00000   0 ;    C26-   O25-   C31-   C34
  1359  1378  1379  1382   9   0.00   0.66944   2 ;    C26-   O25-   C31-   C34
  1359  1378  1379  1382   9   0.00   1.00416   3 ;    C26-   O25-   C31-   C34
  1359  1378  1379  1388   9   0.00   1.41001   3 ;    C26-   O25-   C31-   H56
  1360  1358  1361  1362   9   0.00   0.46024   1 ;    C27-   C25-   C28-   C29
  1360  1358  1361  1362   9   0.00   0.54392   3 ;    C27-   C25-   C28-   C29
  1360  1358  1361  1362   9   180.00   1.21336   2 ;    C27-   C25-   C28-   C29
  1360  1358  1361  1365   9   0.00   0.65084   3 ;    C27-   C25-   C28-   H44
  1360  1358  1361  1368   9   0.00   0.87864   3 ;    C27-   C25-   C28-   O21
  1360  1372  1359  1362   9   0.00   0.00000   0 ;    C27-   O23-   C26-   C29
  1360  1372  1359  1362   9   0.00   0.66944   2 ;    C27-   O23-   C26-   C29
  1360  1372  1359  1362   9   0.00   1.00416   3 ;    C27-   O23-   C26-   C29
  1360  1372  1359  1363   9   0.00   1.60387   3 ;    C27-   O23-   C26-   H42
  1360  1372  1359  1378   9   0.00   5.18816   2 ;    C27-   O23-   C26-   O25
  1360  1372  1359  1378   9   180.00   0.00000   3 ;    C27-   O23-   C26-   O25
  1360  1372  1359  1378   9   180.00   4.05848   1 ;    C27-   O23-   C26-   O25
  1360  1373  1376  1377   9   0.00   0.00000   0 ;    C27-   C30-   O24-   H51
  1361  1358  1360  1367   9   0.00   0.65084   3 ;    C28-   C25-   C27-   H46
  1361  1358  1360  1372   9   0.00   0.65084   3 ;    C28-   C25-   C27-   O23
  1361  1358  1360  1373   9   0.00   0.46024   1 ;    C28-   C25-   C27-   C30
  1361  1358  1360  1373   9   0.00   0.54392   3 ;    C28-   C25-   C27-   C30
  1361  1358  1360  1373   9   180.00   1.21336   2 ;    C28-   C25-   C27-   C30
  1361  1362  1359  1363   9   0.00   0.65084   3 ;    C28-   C29-   C26-   H42
  1361  1362  1359  1372   9   0.00   0.65084   3 ;    C28-   C29-   C26-   O23
  1361  1362  1359  1378   9   0.00   0.65084   3 ;    C28-   C29-   C26-   O25
  1361  1362  1370  1371   9   0.00   0.00000   0 ;    C28-   C29-   O22-   H48
  1362  1359  1378  1379   9   0.00   0.00000   0 ;    C29-   C26-   O25-   C31
  1362  1359  1378  1379   9   0.00   0.66944   2 ;    C29-   C26-   O25-   C31
  1362  1359  1378  1379   9   0.00   1.00416   3 ;    C29-   C26-   O25-   C31
  1362  1361  1358  1364   9   0.00   0.65084   3 ;    C29-   C28-   C25-   H43
  1362  1361  1368  1369   9   0.00   0.00000   0 ;    C29-   C28-   O21-   H47
  1363  1359  1362  1366   9   0.00   0.65084   3 ;    H42-   C26-   C29-   H45
  1363  1359  1362  1370   9   0.00   0.65084   3 ;    H42-   C26-   C29-   O22
  1363  1359  1378  1379   9   0.00   1.60387   3 ;    H42-   C26-   O25-   C31
  1364  1358  1360  1367   9   0.00   0.65084   3 ;    H43-   C25-   C27-   H46
  1364  1358  1360  1372   9   0.00   0.00000   0 ;    H43-   C25-   C27-   O23
  1364  1358  1360  1372   9   0.00   1.04600   1 ;    H43-   C25-   C27-   O23
  1364  1358  1360  1373   9   0.00   0.65084   3 ;    H43-   C25-   C27-   C30
  1364  1358  1361  1365   9   0.00   0.65084   3 ;    H43-   C25-   C28-   H44
  1364  1358  1361  1368   9   0.00   0.00000   0 ;    H43-   C25-   C28-   O21
  1364  1358  1361  1368   9   0.00   1.04600   1 ;    H43-   C25-   C28-   O21
  1365  1361  1362  1366   9   0.00   0.65084   3 ;    H44-   C28-   C29-   H45
  1365  1361  1362  1370   9   0.00   0.00000   0 ;    H44-   C28-   C29-   O22
  1365  1361  1362  1370   9   0.00   1.04600   1 ;    H44-   C28-   C29-   O22
  1365  1361  1368  1369   9   0.00   0.47279   3 ;    H44-   C28-   O21-   H47
  1366  1362  1359  1372   9   0.00   0.00000   0 ;    H45-   C29-   C26-   O23
  1366  1362  1359  1372   9   0.00   1.04600   1 ;    H45-   C29-   C26-   O23
  1366  1362  1359  1378   9   0.00   0.00000   0 ;    H45-   C29-   C26-   O25
  1366  1362  1359  1378   9   0.00   1.04600   1 ;    H45-   C29-   C26-   O25
  1366  1362  1361  1368   9   0.00   0.00000   0 ;    H45-   C29-   C28-   O21
  1366  1362  1361  1368   9   0.00   1.04600   1 ;    H45-   C29-   C28-   O21
  1366  1362  1370  1371   9   0.00   0.47279   3 ;    H45-   C29-   O22-   H48
  1367  1360  1373  1374   9   0.00   0.65084   3 ;    H46-   C27-   C30-   H49
  1367  1360  1373  1375   9   0.00   0.65084   3 ;    H46-   C27-   C30-   H50
  1367  1360  1373  1376   9   0.00   0.00000   0 ;    H46-   C27-   C30-   O24
  1367  1360  1373  1376   9   0.00   1.04600   1 ;    H46-   C27-   C30-   O24
  1368  1361  1362  1370   9   0.00   3.76560   3 ;    O21-   C28-   C29-   O22
  1368  1361  1362  1370   9   0.00   4.72792   2 ;    O21-   C28-   C29-   O22
  1370  1362  1359  1372   9   0.00   0.00000   0 ;    O22-   C29-   C26-   O23
  1370  1362  1359  1372   9   0.00   4.22584   3 ;    O22-   C29-   C26-   O23
  1370  1362  1359  1372   9   180.00   0.08368   1 ;    O22-   C29-   C26-   O23
  1370  1362  1359  1378   9   0.00   0.00000   0 ;    O22-   C29-   C26-   O25
  1370  1362  1359  1378   9   0.00   4.22584   3 ;    O22-   C29-   C26-   O25
  1370  1362  1359  1378   9   180.00   0.08368   1 ;    O22-   C29-   C26-   O25
  1372  1359  1378  1379   9   0.00   5.18816   2 ;    O23-   C26-   O25-   C31
  1372  1359  1378  1379   9   180.00   0.00000   3 ;    O23-   C26-   O25-   C31
  1372  1359  1378  1379   9   180.00   4.05848   1 ;    O23-   C26-   O25-   C31
  1372  1360  1373  1374   9   0.00   0.00000   0 ;    O23-   C27-   C30-   H49
  1372  1360  1373  1374   9   0.00   1.04600   1 ;    O23-   C27-   C30-   H49
  1372  1360  1373  1375   9   0.00   0.00000   0 ;    O23-   C27-   C30-   H50
  1372  1360  1373  1375   9   0.00   1.04600   1 ;    O23-   C27-   C30-   H50
  1372  1360  1373  1376   9   0.00   0.00000   0 ;    O23-   C27-   C30-   O24
  1372  1360  1373  1376   9   0.00   4.22584   3 ;    O23-   C27-   C30-   O24
  1372  1360  1373  1376   9   180.00   0.08368   1 ;    O23-   C27-   C30-   O24
  1374  1373  1376  1377   9   0.00   0.47279   3 ;    H49-   C30-   O24-   H51
  1375  1373  1376  1377   9   0.00   0.47279   3 ;    H50-   C30-   O24-   H51
  1378  1379  1381  1380   9   0.00   0.65084   3 ;    O25-   C31-   C33-   C32
  1378  1379  1381  1384   9   0.00   0.00000   0 ;    O25-   C31-   C33-   H52
  1378  1379  1381  1384   9   0.00   1.04600   1 ;    O25-   C31-   C33-   H52
  1378  1379  1381  1397   9   0.00   0.00000   0 ;    O25-   C31-   C33-   O29
  1378  1379  1381  1397   9   0.00   4.22584   3 ;    O25-   C31-   C33-   O29
  1378  1379  1381  1397   9   180.00   0.08368   1 ;    O25-   C31-   C33-   O29
  1378  1379  1382  1386   9   0.00   0.00000   0 ;    O25-   C31-   C34-   H54
  1378  1379  1382  1386   9   0.00   1.04600   1 ;    O25-   C31-   C34-   H54
  1378  1379  1382  1389   9   0.00   0.00000   0 ;    O25-   C31-   C34-   O26
  1378  1379  1382  1389   9   180.00   0.00000   2 ;    O25-   C31-   C34-   O26
  1378  1379  1382  1389   9   180.00   0.71128   1 ;    O25-   C31-   C34-   O26
  1378  1379  1382  1390   9   0.00   0.65084   3 ;    O25-   C31-   C34-   C36
  1379  1381  1380  1383   9   0.00   0.46024   1 ;    C31-   C33-   C32-   C35
  1379  1381  1380  1383   9   0.00   0.54392   3 ;    C31-   C33-   C32-   C35
  1379  1381  1380  1383   9   180.00   1.21336   2 ;    C31-   C33-   C32-   C35
  1379  1381  1380  1385   9   0.00   0.65084   3 ;    C31-   C33-   C32-   H53
  1379  1381  1380  1395   9   0.00   0.87864   3 ;    C31-   C33-   C32-   O28
  1379  1381  1397  1398   9   0.00   0.00000   0 ;    C31-   C33-   O29-   H61
  1379  1382  1389  1383   9   0.00   0.00000   0 ;    C31-   C34-   O26-   C35
  1379  1382  1389  1383   9   0.00   0.66944   2 ;    C31-   C34-   O26-   C35
  1379  1382  1389  1383   9   0.00   1.00416   3 ;    C31-   C34-   O26-   C35
  1379  1382  1390  1391   9   0.00   0.65084   3 ;    C31-   C34-   C36-   H57
  1379  1382  1390  1392   9   0.00   0.65084   3 ;    C31-   C34-   C36-   H58
  1379  1382  1390  1393   9   0.00   0.87864   3 ;    C31-   C34-   C36-   O27
  1380  1381  1379  1382   9   0.00   0.46024   1 ;    C32-   C33-   C31-   C34
  1380  1381  1379  1382   9   0.00   0.54392   3 ;    C32-   C33-   C31-   C34
  1380  1381  1379  1382   9   180.00   1.21336   2 ;    C32-   C33-   C31-   C34
  1380  1381  1379  1388   9   0.00   0.65084   3 ;    C32-   C33-   C31-   H56
  1380  1381  1397  1398   9   0.00   0.00000   0 ;    C32-   C33-   O29-   H61
  1380  1383  1389  1382   9   0.00   0.00000   0 ;    C32-   C35-   O26-   C34
  1380  1383  1389  1382   9   0.00   0.66944   2 ;    C32-   C35-   O26-   C34
  1380  1383  1389  1382   9   0.00   1.00416   3 ;    C32-   C35-   O26-   C34
  1380  1383  1399  1400   9   0.00   0.00000   0 ;    C32-   C35-   O30-   C37
  1380  1383  1399  1400   9   0.00   0.66944   2 ;    C32-   C35-   O30-   C37
  1380  1383  1399  1400   9   0.00   1.00416   3 ;    C32-   C35-   O30-   C37
  1381  1379  1382  1386   9   0.00   0.65084   3 ;    C33-   C31-   C34-   H54
  1381  1379  1382  1389   9   0.00   0.65084   3 ;    C33-   C31-   C34-   O26
  1381  1379  1382  1390   9   0.00   0.46024   1 ;    C33-   C31-   C34-   C36
  1381  1379  1382  1390   9   0.00   0.54392   3 ;    C33-   C31-   C34-   C36
  1381  1379  1382  1390   9   180.00   1.21336   2 ;    C33-   C31-   C34-   C36
  1381  1380  1383  1387   9   0.00   0.65084   3 ;    C33-   C32-   C35-   H55
  1381  1380  1383  1389   9   0.00   0.65084   3 ;    C33-   C32-   C35-   O26
  1381  1380  1383  1399   9   0.00   0.65084   3 ;    C33-   C32-   C35-   O30
  1381  1380  1395  1396   9   0.00   0.00000   0 ;    C33-   C32-   O28-   H60
  1382  1379  1381  1384   9   0.00   0.65084   3 ;    C34-   C31-   C33-   H52
  1382  1379  1381  1397   9   0.00   0.87864   3 ;    C34-   C31-   C33-   O29
  1382  1389  1383  1387   9   0.00   1.60387   3 ;    C34-   O26-   C35-   H55
  1382  1389  1383  1399   9   0.00   5.18816   2 ;    C34-   O26-   C35-   O30
  1382  1389  1383  1399   9   180.00   0.00000   3 ;    C34-   O26-   C35-   O30
  1382  1389  1383  1399   9   180.00   4.05848   1 ;    C34-   O26-   C35-   O30
  1382  1390  1393  1394   9   0.00   0.00000   0 ;    C34-   C36-   O27-   H59
  1383  1380  1381  1384   9   0.00   0.65084   3 ;    C35-   C32-   C33-   H52
  1383  1380  1381  1397   9   0.00   0.87864   3 ;    C35-   C32-   C33-   O29
  1383  1380  1395  1396   9   0.00   0.00000   0 ;    C35-   C32-   O28-   H60
  1383  1389  1382  1386   9   0.00   1.41001   3 ;    C35-   O26-   C34-   H54
  1383  1389  1382  1390   9   0.00   0.00000   0 ;    C35-   O26-   C34-   C36
  1383  1389  1382  1390   9   0.00   0.66944   2 ;    C35-   O26-   C34-   C36
  1383  1389  1382  1390   9   0.00   1.00416   3 ;    C35-   O26-   C34-   C36
  1383  1399  1400  1402   9   0.00   0.00000   0 ;    C35-   O30-   C37-   C39
  1383  1399  1400  1402   9   0.00   0.66944   2 ;    C35-   O30-   C37-   C39
  1383  1399  1400  1402   9   0.00   1.00416   3 ;    C35-   O30-   C37-   C39
  1383  1399  1400  1403   9   0.00   0.00000   0 ;    C35-   O30-   C37-   C40
  1383  1399  1400  1403   9   0.00   0.66944   2 ;    C35-   O30-   C37-   C40
  1383  1399  1400  1403   9   0.00   1.00416   3 ;    C35-   O30-   C37-   C40
  1383  1399  1400  1406   9   0.00   1.41001   3 ;    C35-   O30-   C37-   H63
  1384  1381  1379  1388   9   0.00   0.65084   3 ;    H52-   C33-   C31-   H56
  1384  1381  1380  1385   9   0.00   0.65084   3 ;    H52-   C33-   C32-   H53
  1384  1381  1380  1395   9   0.00   0.00000   0 ;    H52-   C33-   C32-   O28
  1384  1381  1380  1395   9   0.00   1.04600   1 ;    H52-   C33-   C32-   O28
  1384  1381  1397  1398   9   0.00   0.47279   3 ;    H52-   C33-   O29-   H61
  1385  1380  1381  1397   9   0.00   0.00000   0 ;    H53-   C32-   C33-   O29
  1385  1380  1381  1397   9   0.00   1.04600   1 ;    H53-   C32-   C33-   O29
  1385  1380  1383  1387   9   0.00   0.65084   3 ;    H53-   C32-   C35-   H55
  1385  1380  1383  1389   9   0.00   0.00000   0 ;    H53-   C32-   C35-   O26
  1385  1380  1383  1389   9   0.00   1.04600   1 ;    H53-   C32-   C35-   O26
  1385  1380  1383  1399   9   0.00   0.00000   0 ;    H53-   C32-   C35-   O30
  1385  1380  1383  1399   9   0.00   1.04600   1 ;    H53-   C32-   C35-   O30
  1385  1380  1395  1396   9   0.00   0.47279   3 ;    H53-   C32-   O28-   H60
  1386  1382  1379  1388   9   0.00   0.65084   3 ;    H54-   C34-   C31-   H56
  1386  1382  1390  1391   9   0.00   0.65084   3 ;    H54-   C34-   C36-   H57
  1386  1382  1390  1392   9   0.00   0.65084   3 ;    H54-   C34-   C36-   H58
  1386  1382  1390  1393   9   0.00   0.00000   0 ;    H54-   C34-   C36-   O27
  1386  1382  1390  1393   9   0.00   1.04600   1 ;    H54-   C34-   C36-   O27
  1387  1383  1380  1395   9   0.00   0.65084   3 ;    H55-   C35-   C32-   O28
  1387  1383  1399  1400   9   0.00   1.60387   3 ;    H55-   C35-   O30-   C37
  1388  1379  1381  1397   9   0.00   0.00000   0 ;    H56-   C31-   C33-   O29
  1388  1379  1381  1397   9   0.00   1.04600   1 ;    H56-   C31-   C33-   O29
  1388  1379  1382  1389   9   0.00   0.00000   0 ;    H56-   C31-   C34-   O26
  1388  1379  1382  1389   9   0.00   1.04600   1 ;    H56-   C31-   C34-   O26
  1388  1379  1382  1390   9   0.00   0.65084   3 ;    H56-   C31-   C34-   C36
  1389  1382  1390  1391   9   0.00   0.00000   0 ;    O26-   C34-   C36-   H57
  1389  1382  1390  1391   9   0.00   1.04600   1 ;    O26-   C34-   C36-   H57
  1389  1382  1390  1392   9   0.00   0.00000   0 ;    O26-   C34-   C36-   H58
  1389  1382  1390  1392   9   0.00   1.04600   1 ;    O26-   C34-   C36-   H58
  1389  1382  1390  1393   9   0.00   0.00000   0 ;    O26-   C34-   C36-   O27
  1389  1382  1390  1393   9   0.00   4.22584   3 ;    O26-   C34-   C36-   O27
  1389  1382  1390  1393   9   180.00   0.08368   1 ;    O26-   C34-   C36-   O27
  1389  1383  1380  1395   9   0.00   0.00000   0 ;    O26-   C35-   C32-   O28
  1389  1383  1380  1395   9   0.00   4.22584   3 ;    O26-   C35-   C32-   O28
  1389  1383  1380  1395   9   180.00   0.08368   1 ;    O26-   C35-   C32-   O28
  1389  1383  1399  1400   9   0.00   5.18816   2 ;    O26-   C35-   O30-   C37
  1389  1383  1399  1400   9   180.00   0.00000   3 ;    O26-   C35-   O30-   C37
  1389  1383  1399  1400   9   180.00   4.05848   1 ;    O26-   C35-   O30-   C37
  1391  1390  1393  1394   9   0.00   0.47279   3 ;    H57-   C36-   O27-   H59
  1392  1390  1393  1394   9   0.00   0.47279   3 ;    H58-   C36-   O27-   H59
  1395  1380  1381  1397   9   0.00   3.76560   3 ;    O28-   C32-   C33-   O29
  1395  1380  1381  1397   9   0.00   4.72792   2 ;    O28-   C32-   C33-   O29
  1395  1380  1383  1399   9   0.00   0.00000   0 ;    O28-   C32-   C35-   O30
  1395  1380  1383  1399   9   0.00   4.22584   3 ;    O28-   C32-   C35-   O30
  1395  1380  1383  1399   9   180.00   0.08368   1 ;    O28-   C32-   C35-   O30
  1399  1400  1402  1409   9   0.00   0.00000   0 ;    O30-   C37-   C39-   H66
  1399  1400  1402  1409   9   0.00   1.04600   1 ;    O30-   C37-   C39-   H66
  1399  1400  1402  1414   9   0.00   0.00000   0 ;    O30-   C37-   C39-   O33
  1399  1400  1402  1414   9   180.00   0.00000   2 ;    O30-   C37-   C39-   O33
  1399  1400  1402  1414   9   180.00   0.71128   1 ;    O30-   C37-   C39-   O33
  1399  1400  1402  1415   9   0.00   0.65084   3 ;    O30-   C37-   C39-   C42
  1399  1400  1403  1404   9   0.00   0.65084   3 ;    O30-   C37-   C40-   C41
  1399  1400  1403  1407   9   0.00   0.00000   0 ;    O30-   C37-   C40-   H64
  1399  1400  1403  1407   9   0.00   1.04600   1 ;    O30-   C37-   C40-   H64
  1399  1400  1403  1410   9   0.00   0.00000   0 ;    O30-   C37-   C40-   O31
  1399  1400  1403  1410   9   0.00   4.22584   3 ;    O30-   C37-   C40-   O31
  1399  1400  1403  1410   9   180.00   0.08368   1 ;    O30-   C37-   C40-   O31
  1400  1402  1414  1401   9   0.00   0.00000   0 ;    C37-   C39-   O33-   C38
  1400  1402  1414  1401   9   0.00   0.66944   2 ;    C37-   C39-   O33-   C38
  1400  1402  1414  1401   9   0.00   1.00416   3 ;    C37-   C39-   O33-   C38
  1400  1402  1415  1416   9   0.00   0.65084   3 ;    C37-   C39-   C42-   H69
  1400  1402  1415  1417   9   0.00   0.65084   3 ;    C37-   C39-   C42-   H70
  1400  1402  1415  1418   9   0.00   0.87864   3 ;    C37-   C39-   C42-   O34
  1400  1403  1404  1401   9   0.00   0.46024   1 ;    C37-   C40-   C41-   C38
  1400  1403  1404  1401   9   0.00   0.54392   3 ;    C37-   C40-   C41-   C38
  1400  1403  1404  1401   9   180.00   1.21336   2 ;    C37-   C40-   C41-   C38
  1400  1403  1404  1408   9   0.00   0.65084   3 ;    C37-   C40-   C41-   H65
  1400  1403  1404  1412   9   0.00   0.87864   3 ;    C37-   C40-   C41-   O32
  1400  1403  1410  1411   9   0.00   0.00000   0 ;    C37-   C40-   O31-   H67
  1401  1404  1403  1407   9   0.00   0.65084   3 ;    C38-   C41-   C40-   H64
  1401  1404  1403  1410   9   0.00   0.87864   3 ;    C38-   C41-   C40-   O31
  1401  1404  1412  1413   9   0.00   0.00000   0 ;    C38-   C41-   O32-   H68
  1401  1414  1402  1409   9   0.00   1.41001   3 ;    C38-   O33-   C39-   H66
  1401  1414  1402  1415   9   0.00   0.00000   0 ;    C38-   O33-   C39-   C42
  1401  1414  1402  1415   9   0.00   0.66944   2 ;    C38-   O33-   C39-   C42
  1401  1414  1402  1415   9   0.00   1.00416   3 ;    C38-   O33-   C39-   C42
  1401  1420  1421  1423   9   0.00   0.00000   0 ;    C38-   O35-   C43-   C45
  1401  1420  1421  1423   9   0.00   0.66944   2 ;    C38-   O35-   C43-   C45
  1401  1420  1421  1423   9   0.00   1.00416   3 ;    C38-   O35-   C43-   C45
  1401  1420  1421  1424   9   0.00   0.00000   0 ;    C38-   O35-   C43-   C46
  1401  1420  1421  1424   9   0.00   0.66944   2 ;    C38-   O35-   C43-   C46
  1401  1420  1421  1424   9   0.00   1.00416   3 ;    C38-   O35-   C43-   C46
  1401  1420  1421  1430   9   0.00   1.41001   3 ;    C38-   O35-   C43-   H76
  1402  1400  1403  1404   9   0.00   0.46024   1 ;    C39-   C37-   C40-   C41
  1402  1400  1403  1404   9   0.00   0.54392   3 ;    C39-   C37-   C40-   C41
  1402  1400  1403  1404   9   180.00   1.21336   2 ;    C39-   C37-   C40-   C41
  1402  1400  1403  1407   9   0.00   0.65084   3 ;    C39-   C37-   C40-   H64
  1402  1400  1403  1410   9   0.00   0.87864   3 ;    C39-   C37-   C40-   O31
  1402  1414  1401  1404   9   0.00   0.00000   0 ;    C39-   O33-   C38-   C41
  1402  1414  1401  1404   9   0.00   0.66944   2 ;    C39-   O33-   C38-   C41
  1402  1414  1401  1404   9   0.00   1.00416   3 ;    C39-   O33-   C38-   C41
  1402  1414  1401  1405   9   0.00   1.60387   3 ;    C39-   O33-   C38-   H62
  1402  1414  1401  1420   9   0.00   5.18816   2 ;    C39-   O33-   C38-   O35
  1402  1414  1401  1420   9   180.00   0.00000   3 ;    C39-   O33-   C38-   O35
  1402  1414  1401  1420   9   180.00   4.05848   1 ;    C39-   O33-   C38-   O35
  1402  1415  1418  1419   9   0.00   0.00000   0 ;    C39-   C42-   O34-   H71
  1403  1400  1402  1409   9   0.00   0.65084   3 ;    C40-   C37-   C39-   H66
  1403  1400  1402  1414   9   0.00   0.65084   3 ;    C40-   C37-   C39-   O33
  1403  1400  1402  1415   9   0.00   0.46024   1 ;    C40-   C37-   C39-   C42
  1403  1400  1402  1415   9   0.00   0.54392   3 ;    C40-   C37-   C39-   C42
  1403  1400  1402  1415   9   180.00   1.21336   2 ;    C40-   C37-   C39-   C42
  1403  1404  1401  1405   9   0.00   0.65084   3 ;    C40-   C41-   C38-   H62
  1403  1404  1401  1414   9   0.00   0.65084   3 ;    C40-   C41-   C38-   O33
  1403  1404  1401  1420   9   0.00   0.65084   3 ;    C40-   C41-   C38-   O35
  1403  1404  1412  1413   9   0.00   0.00000   0 ;    C40-   C41-   O32-   H68
  1404  1401  1420  1421   9   0.00   0.00000   0 ;    C41-   C38-   O35-   C43
  1404  1401  1420  1421   9   0.00   0.66944   2 ;    C41-   C38-   O35-   C43
  1404  1401  1420  1421   9   0.00   1.00416   3 ;    C41-   C38-   O35-   C43
  1404  1403  1400  1406   9   0.00   0.65084   3 ;    C41-   C40-   C37-   H63
  1404  1403  1410  1411   9   0.00   0.00000   0 ;    C41-   C40-   O31-   H67
  1405  1401  1404  1408   9   0.00   0.65084   3 ;    H62-   C38-   C41-   H65
  1405  1401  1404  1412   9   0.00   0.65084   3 ;    H62-   C38-   C41-   O32
  1405  1401  1420  1421   9   0.00   1.60387   3 ;    H62-   C38-   O35-   C43
  1406  1400  1402  1409   9   0.00   0.65084   3 ;    H63-   C37-   C39-   H66
  1406  1400  1402  1414   9   0.00   0.00000   0 ;    H63-   C37-   C39-   O33
  1406  1400  1402  1414   9   0.00   1.04600   1 ;    H63-   C37-   C39-   O33
  1406  1400  1402  1415   9   0.00   0.65084   3 ;    H63-   C37-   C39-   C42
  1406  1400  1403  1407   9   0.00   0.65084   3 ;    H63-   C37-   C40-   H64
  1406  1400  1403  1410   9   0.00   0.00000   0 ;    H63-   C37-   C40-   O31
  1406  1400  1403  1410   9   0.00   1.04600   1 ;    H63-   C37-   C40-   O31
  1407  1403  1404  1408   9   0.00   0.65084   3 ;    H64-   C40-   C41-   H65
  1407  1403  1404  1412   9   0.00   0.00000   0 ;    H64-   C40-   C41-   O32
  1407  1403  1404  1412   9   0.00   1.04600   1 ;    H64-   C40-   C41-   O32
  1407  1403  1410  1411   9   0.00   0.47279   3 ;    H64-   C40-   O31-   H67
  1408  1404  1401  1414   9   0.00   0.00000   0 ;    H65-   C41-   C38-   O33
  1408  1404  1401  1414   9   0.00   1.04600   1 ;    H65-   C41-   C38-   O33
  1408  1404  1401  1420   9   0.00   0.00000   0 ;    H65-   C41-   C38-   O35
  1408  1404  1401  1420   9   0.00   1.04600   1 ;    H65-   C41-   C38-   O35
  1408  1404  1403  1410   9   0.00   0.00000   0 ;    H65-   C41-   C40-   O31
  1408  1404  1403  1410   9   0.00   1.04600   1 ;    H65-   C41-   C40-   O31
  1408  1404  1412  1413   9   0.00   0.47279   3 ;    H65-   C41-   O32-   H68
  1409  1402  1415  1416   9   0.00   0.65084   3 ;    H66-   C39-   C42-   H69
  1409  1402  1415  1417   9   0.00   0.65084   3 ;    H66-   C39-   C42-   H70
  1409  1402  1415  1418   9   0.00   0.00000   0 ;    H66-   C39-   C42-   O34
  1409  1402  1415  1418   9   0.00   1.04600   1 ;    H66-   C39-   C42-   O34
  1410  1403  1404  1412   9   0.00   3.76560   3 ;    O31-   C40-   C41-   O32
  1410  1403  1404  1412   9   0.00   4.72792   2 ;    O31-   C40-   C41-   O32
  1412  1404  1401  1414   9   0.00   0.00000   0 ;    O32-   C41-   C38-   O33
  1412  1404  1401  1414   9   0.00   4.22584   3 ;    O32-   C41-   C38-   O33
  1412  1404  1401  1414   9   180.00   0.08368   1 ;    O32-   C41-   C38-   O33
  1412  1404  1401  1420   9   0.00   0.00000   0 ;    O32-   C41-   C38-   O35
  1412  1404  1401  1420   9   0.00   4.22584   3 ;    O32-   C41-   C38-   O35
  1412  1404  1401  1420   9   180.00   0.08368   1 ;    O32-   C41-   C38-   O35
  1414  1401  1420  1421   9   0.00   5.18816   2 ;    O33-   C38-   O35-   C43
  1414  1401  1420  1421   9   180.00   0.00000   3 ;    O33-   C38-   O35-   C43
  1414  1401  1420  1421   9   180.00   4.05848   1 ;    O33-   C38-   O35-   C43
  1414  1402  1415  1416   9   0.00   0.00000   0 ;    O33-   C39-   C42-   H69
  1414  1402  1415  1416   9   0.00   1.04600   1 ;    O33-   C39-   C42-   H69
  1414  1402  1415  1417   9   0.00   0.00000   0 ;    O33-   C39-   C42-   H70
  1414  1402  1415  1417   9   0.00   1.04600   1 ;    O33-   C39-   C42-   H70
  1414  1402  1415  1418   9   0.00   0.00000   0 ;    O33-   C39-   C42-   O34
  1414  1402  1415  1418   9   0.00   4.22584   3 ;    O33-   C39-   C42-   O34
  1414  1402  1415  1418   9   180.00   0.08368   1 ;    O33-   C39-   C42-   O34
  1416  1415  1418  1419   9   0.00   0.47279   3 ;    H69-   C42-   O34-   H71
  1417  1415  1418  1419   9   0.00   0.47279   3 ;    H70-   C42-   O34-   H71
  1420  1421  1423  1422   9   0.00   0.65084   3 ;    O35-   C43-   C45-   C44
  1420  1421  1423  1426   9   0.00   0.00000   0 ;    O35-   C43-   C45-   H72
  1420  1421  1423  1426   9   0.00   1.04600   1 ;    O35-   C43-   C45-   H72
  1420  1421  1423  1439   9   0.00   0.00000   0 ;    O35-   C43-   C45-   O39
  1420  1421  1423  1439   9   0.00   4.22584   3 ;    O35-   C43-   C45-   O39
  1420  1421  1423  1439   9   180.00   0.08368   1 ;    O35-   C43-   C45-   O39
  1420  1421  1424  1428   9   0.00   0.00000   0 ;    O35-   C43-   C46-   H74
  1420  1421  1424  1428   9   0.00   1.04600   1 ;    O35-   C43-   C46-   H74
  1420  1421  1424  1431   9   0.00   0.00000   0 ;    O35-   C43-   C46-   O36
  1420  1421  1424  1431   9   180.00   0.00000   2 ;    O35-   C43-   C46-   O36
  1420  1421  1424  1431   9   180.00   0.71128   1 ;    O35-   C43-   C46-   O36
  1420  1421  1424  1432   9   0.00   0.65084   3 ;    O35-   C43-   C46-   C48
  1421  1423  1422  1425   9   0.00   0.46024   1 ;    C43-   C45-   C44-   C47
  1421  1423  1422  1425   9   0.00   0.54392   3 ;    C43-   C45-   C44-   C47
  1421  1423  1422  1425   9   180.00   1.21336   2 ;    C43-   C45-   C44-   C47
  1421  1423  1422  1427   9   0.00   0.65084   3 ;    C43-   C45-   C44-   H73
  1421  1423  1422  1437   9   0.00   0.87864   3 ;    C43-   C45-   C44-   O38
  1421  1423  1439  1440   9   0.00   0.00000   0 ;    C43-   C45-   O39-   H81
  1421  1424  1431  1425   9   0.00   0.00000   0 ;    C43-   C46-   O36-   C47
  1421  1424  1431  1425   9   0.00   0.66944   2 ;    C43-   C46-   O36-   C47
  1421  1424  1431  1425   9   0.00   1.00416   3 ;    C43-   C46-   O36-   C47
  1421  1424  1432  1433   9   0.00   0.65084   3 ;    C43-   C46-   C48-   H77
  1421  1424  1432  1434   9   0.00   0.65084   3 ;    C43-   C46-   C48-   H78
  1421  1424  1432  1435   9   0.00   0.87864   3 ;    C43-   C46-   C48-   O37
  1422  1423  1421  1424   9   0.00   0.46024   1 ;    C44-   C45-   C43-   C46
  1422  1423  1421  1424   9   0.00   0.54392   3 ;    C44-   C45-   C43-   C46
  1422  1423  1421  1424   9   180.00   1.21336   2 ;    C44-   C45-   C43-   C46
  1422  1423  1421  1430   9   0.00   0.65084   3 ;    C44-   C45-   C43-   H76
  1422  1423  1439  1440   9   0.00   0.00000   0 ;    C44-   C45-   O39-   H81
  1422  1425  1431  1424   9   0.00   0.00000   0 ;    C44-   C47-   O36-   C46
  1422  1425  1431  1424   9   0.00   0.66944   2 ;    C44-   C47-   O36-   C46
  1422  1425  1431  1424   9   0.00   1.00416   3 ;    C44-   C47-   O36-   C46
  1422  1425  1441  1442   9   0.00   0.00000   0 ;    C44-   C47-   O40-   C49
  1422  1425  1441  1442   9   0.00   0.66944   2 ;    C44-   C47-   O40-   C49
  1422  1425  1441  1442   9   0.00   1.00416   3 ;    C44-   C47-   O40-   C49
  1423  1421  1424  1428   9   0.00   0.65084   3 ;    C45-   C43-   C46-   H74
  1423  1421  1424  1431   9   0.00   0.65084   3 ;    C45-   C43-   C46-   O36
  1423  1421  1424  1432   9   0.00   0.46024   1 ;    C45-   C43-   C46-   C48
  1423  1421  1424  1432   9   0.00   0.54392   3 ;    C45-   C43-   C46-   C48
  1423  1421  1424  1432   9   180.00   1.21336   2 ;    C45-   C43-   C46-   C48
  1423  1422  1425  1429   9   0.00   0.65084   3 ;    C45-   C44-   C47-   H75
  1423  1422  1425  1431   9   0.00   0.65084   3 ;    C45-   C44-   C47-   O36
  1423  1422  1425  1441   9   0.00   0.65084   3 ;    C45-   C44-   C47-   O40
  1423  1422  1437  1438   9   0.00   0.00000   0 ;    C45-   C44-   O38-   H80
  1424  1421  1423  1426   9   0.00   0.65084   3 ;    C46-   C43-   C45-   H72
  1424  1421  1423  1439   9   0.00   0.87864   3 ;    C46-   C43-   C45-   O39
  1424  1431  1425  1429   9   0.00   1.60387   3 ;    C46-   O36-   C47-   H75
  1424  1431  1425  1441   9   0.00   5.18816   2 ;    C46-   O36-   C47-   O40
  1424  1431  1425  1441   9   180.00   0.00000   3 ;    C46-   O36-   C47-   O40
  1424  1431  1425  1441   9   180.00   4.05848   1 ;    C46-   O36-   C47-   O40
  1424  1432  1435  1436   9   0.00   0.00000   0 ;    C46-   C48-   O37-   H79
  1425  1422  1423  1426   9   0.00   0.65084   3 ;    C47-   C44-   C45-   H72
  1425  1422  1423  1439   9   0.00   0.87864   3 ;    C47-   C44-   C45-   O39
  1425  1422  1437  1438   9   0.00   0.00000   0 ;    C47-   C44-   O38-   H80
  1425  1431  1424  1428   9   0.00   1.41001   3 ;    C47-   O36-   C46-   H74
  1425  1431  1424  1432   9   0.00   0.00000   0 ;    C47-   O36-   C46-   C48
  1425  1431  1424  1432   9   0.00   0.66944   2 ;    C47-   O36-   C46-   C48
  1425  1431  1424  1432   9   0.00   1.00416   3 ;    C47-   O36-   C46-   C48
  1425  1441  1442  1444   9   0.00   0.00000   0 ;    C47-   O40-   C49-   C51
  1425  1441  1442  1444   9   0.00   0.66944   2 ;    C47-   O40-   C49-   C51
  1425  1441  1442  1444   9   0.00   1.00416   3 ;    C47-   O40-   C49-   C51
  1425  1441  1442  1445   9   0.00   0.00000   0 ;    C47-   O40-   C49-   C52
  1425  1441  1442  1445   9   0.00   0.66944   2 ;    C47-   O40-   C49-   C52
  1425  1441  1442  1445   9   0.00   1.00416   3 ;    C47-   O40-   C49-   C52
  1425  1441  1442  1448   9   0.00   1.41001   3 ;    C47-   O40-   C49-   H83
  1426  1423  1421  1430   9   0.00   0.65084   3 ;    H72-   C45-   C43-   H76
  1426  1423  1422  1427   9   0.00   0.65084   3 ;    H72-   C45-   C44-   H73
  1426  1423  1422  1437   9   0.00   0.00000   0 ;    H72-   C45-   C44-   O38
  1426  1423  1422  1437   9   0.00   1.04600   1 ;    H72-   C45-   C44-   O38
  1426  1423  1439  1440   9   0.00   0.47279   3 ;    H72-   C45-   O39-   H81
  1427  1422  1423  1439   9   0.00   0.00000   0 ;    H73-   C44-   C45-   O39
  1427  1422  1423  1439   9   0.00   1.04600   1 ;    H73-   C44-   C45-   O39
  1427  1422  1425  1429   9   0.00   0.65084   3 ;    H73-   C44-   C47-   H75
  1427  1422  1425  1431   9   0.00   0.00000   0 ;    H73-   C44-   C47-   O36
  1427  1422  1425  1431   9   0.00   1.04600   1 ;    H73-   C44-   C47-   O36
  1427  1422  1425  1441   9   0.00   0.00000   0 ;    H73-   C44-   C47-   O40
  1427  1422  1425  1441   9   0.00   1.04600   1 ;    H73-   C44-   C47-   O40
  1427  1422  1437  1438   9   0.00   0.47279   3 ;    H73-   C44-   O38-   H80
  1428  1424  1421  1430   9   0.00   0.65084   3 ;    H74-   C46-   C43-   H76
  1428  1424  1432  1433   9   0.00   0.65084   3 ;    H74-   C46-   C48-   H77
  1428  1424  1432  1434   9   0.00   0.65084   3 ;    H74-   C46-   C48-   H78
  1428  1424  1432  1435   9   0.00   0.00000   0 ;    H74-   C46-   C48-   O37
  1428  1424  1432  1435   9   0.00   1.04600   1 ;    H74-   C46-   C48-   O37
  1429  1425  1422  1437   9   0.00   0.65084   3 ;    H75-   C47-   C44-   O38
  1429  1425  1441  1442   9   0.00   1.60387   3 ;    H75-   C47-   O40-   C49
  1430  1421  1423  1439   9   0.00   0.00000   0 ;    H76-   C43-   C45-   O39
  1430  1421  1423  1439   9   0.00   1.04600   1 ;    H76-   C43-   C45-   O39
  1430  1421  1424  1431   9   0.00   0.00000   0 ;    H76-   C43-   C46-   O36
  1430  1421  1424  1431   9   0.00   1.04600   1 ;    H76-   C43-   C46-   O36
  1430  1421  1424  1432   9   0.00   0.65084   3 ;    H76-   C43-   C46-   C48
  1431  1424  1432  1433   9   0.00   0.00000   0 ;    O36-   C46-   C48-   H77
  1431  1424  1432  1433   9   0.00   1.04600   1 ;    O36-   C46-   C48-   H77
  1431  1424  1432  1434   9   0.00   0.00000   0 ;    O36-   C46-   C48-   H78
  1431  1424  1432  1434   9   0.00   1.04600   1 ;    O36-   C46-   C48-   H78
  1431  1424  1432  1435   9   0.00   0.00000   0 ;    O36-   C46-   C48-   O37
  1431  1424  1432  1435   9   0.00   4.22584   3 ;    O36-   C46-   C48-   O37
  1431  1424  1432  1435   9   180.00   0.08368   1 ;    O36-   C46-   C48-   O37
  1431  1425  1422  1437   9   0.00   0.00000   0 ;    O36-   C47-   C44-   O38
  1431  1425  1422  1437   9   0.00   4.22584   3 ;    O36-   C47-   C44-   O38
  1431  1425  1422  1437   9   180.00   0.08368   1 ;    O36-   C47-   C44-   O38
  1431  1425  1441  1442   9   0.00   5.18816   2 ;    O36-   C47-   O40-   C49
  1431  1425  1441  1442   9   180.00   0.00000   3 ;    O36-   C47-   O40-   C49
  1431  1425  1441  1442   9   180.00   4.05848   1 ;    O36-   C47-   O40-   C49
  1433  1432  1435  1436   9   0.00   0.47279   3 ;    H77-   C48-   O37-   H79
  1434  1432  1435  1436   9   0.00   0.47279   3 ;    H78-   C48-   O37-   H79
  1437  1422  1423  1439   9   0.00   3.76560   3 ;    O38-   C44-   C45-   O39
  1437  1422  1423  1439   9   0.00   4.72792   2 ;    O38-   C44-   C45-   O39
  1437  1422  1425  1441   9   0.00   0.00000   0 ;    O38-   C44-   C47-   O40
  1437  1422  1425  1441   9   0.00   4.22584   3 ;    O38-   C44-   C47-   O40
  1437  1422  1425  1441   9   180.00   0.08368   1 ;    O38-   C44-   C47-   O40
  1441  1442  1444  1451   9   0.00   0.00000   0 ;    O40-   C49-   C51-   H86
  1441  1442  1444  1451   9   0.00   1.04600   1 ;    O40-   C49-   C51-   H86
  1441  1442  1444  1456   9   0.00   0.00000   0 ;    O40-   C49-   C51-   O43
  1441  1442  1444  1456   9   180.00   0.00000   2 ;    O40-   C49-   C51-   O43
  1441  1442  1444  1456   9   180.00   0.71128   1 ;    O40-   C49-   C51-   O43
  1441  1442  1444  1457   9   0.00   0.65084   3 ;    O40-   C49-   C51-   C54
  1441  1442  1445  1446   9   0.00   0.65084   3 ;    O40-   C49-   C52-   C53
  1441  1442  1445  1449   9   0.00   0.00000   0 ;    O40-   C49-   C52-   H84
  1441  1442  1445  1449   9   0.00   1.04600   1 ;    O40-   C49-   C52-   H84
  1441  1442  1445  1452   9   0.00   0.00000   0 ;    O40-   C49-   C52-   O41
  1441  1442  1445  1452   9   0.00   4.22584   3 ;    O40-   C49-   C52-   O41
  1441  1442  1445  1452   9   180.00   0.08368   1 ;    O40-   C49-   C52-   O41
  1442  1444  1456  1443   9   0.00   0.00000   0 ;    C49-   C51-   O43-   C50
  1442  1444  1456  1443   9   0.00   0.66944   2 ;    C49-   C51-   O43-   C50
  1442  1444  1456  1443   9   0.00   1.00416   3 ;    C49-   C51-   O43-   C50
  1442  1444  1457  1458   9   0.00   0.65084   3 ;    C49-   C51-   C54-   H89
  1442  1444  1457  1459   9   0.00   0.65084   3 ;    C49-   C51-   C54-   H90
  1442  1444  1457  1460   9   0.00   0.87864   3 ;    C49-   C51-   C54-   O44
  1442  1445  1446  1443   9   0.00   0.46024   1 ;    C49-   C52-   C53-   C50
  1442  1445  1446  1443   9   0.00   0.54392   3 ;    C49-   C52-   C53-   C50
  1442  1445  1446  1443   9   180.00   1.21336   2 ;    C49-   C52-   C53-   C50
  1442  1445  1446  1450   9   0.00   0.65084   3 ;    C49-   C52-   C53-   H85
  1442  1445  1446  1454   9   0.00   0.87864   3 ;    C49-   C52-   C53-   O42
  1442  1445  1452  1453   9   0.00   0.00000   0 ;    C49-   C52-   O41-   H87
  1443  1446  1445  1449   9   0.00   0.65084   3 ;    C50-   C53-   C52-   H84
  1443  1446  1445  1452   9   0.00   0.87864   3 ;    C50-   C53-   C52-   O41
  1443  1446  1454  1455   9   0.00   0.00000   0 ;    C50-   C53-   O42-   H88
  1443  1456  1444  1451   9   0.00   1.41001   3 ;    C50-   O43-   C51-   H86
  1443  1456  1444  1457   9   0.00   0.00000   0 ;    C50-   O43-   C51-   C54
  1443  1456  1444  1457   9   0.00   0.66944   2 ;    C50-   O43-   C51-   C54
  1443  1456  1444  1457   9   0.00   1.00416   3 ;    C50-   O43-   C51-   C54
  1443  1462  1463  1465   9   0.00   0.00000   0 ;    C50-   O45-   C55-   C57
  1443  1462  1463  1465   9   0.00   0.66944   2 ;    C50-   O45-   C55-   C57
  1443  1462  1463  1465   9   0.00   1.00416   3 ;    C50-   O45-   C55-   C57
  1443  1462  1463  1466   9   0.00   0.00000   0 ;    C50-   O45-   C55-   C58
  1443  1462  1463  1466   9   0.00   0.66944   2 ;    C50-   O45-   C55-   C58
  1443  1462  1463  1466   9   0.00   1.00416   3 ;    C50-   O45-   C55-   C58
  1443  1462  1463  1472   9   0.00   1.41001   3 ;    C50-   O45-   C55-   H96
  1444  1442  1445  1446   9   0.00   0.46024   1 ;    C51-   C49-   C52-   C53
  1444  1442  1445  1446   9   0.00   0.54392   3 ;    C51-   C49-   C52-   C53
  1444  1442  1445  1446   9   180.00   1.21336   2 ;    C51-   C49-   C52-   C53
  1444  1442  1445  1449   9   0.00   0.65084   3 ;    C51-   C49-   C52-   H84
  1444  1442  1445  1452   9   0.00   0.87864   3 ;    C51-   C49-   C52-   O41
  1444  1456  1443  1446   9   0.00   0.00000   0 ;    C51-   O43-   C50-   C53
  1444  1456  1443  1446   9   0.00   0.66944   2 ;    C51-   O43-   C50-   C53
  1444  1456  1443  1446   9   0.00   1.00416   3 ;    C51-   O43-   C50-   C53
  1444  1456  1443  1447   9   0.00   1.60387   3 ;    C51-   O43-   C50-   H82
  1444  1456  1443  1462   9   0.00   5.18816   2 ;    C51-   O43-   C50-   O45
  1444  1456  1443  1462   9   180.00   0.00000   3 ;    C51-   O43-   C50-   O45
  1444  1456  1443  1462   9   180.00   4.05848   1 ;    C51-   O43-   C50-   O45
  1444  1457  1460  1461   9   0.00   0.00000   0 ;    C51-   C54-   O44-   H91
  1445  1442  1444  1451   9   0.00   0.65084   3 ;    C52-   C49-   C51-   H86
  1445  1442  1444  1456   9   0.00   0.65084   3 ;    C52-   C49-   C51-   O43
  1445  1442  1444  1457   9   0.00   0.46024   1 ;    C52-   C49-   C51-   C54
  1445  1442  1444  1457   9   0.00   0.54392   3 ;    C52-   C49-   C51-   C54
  1445  1442  1444  1457   9   180.00   1.21336   2 ;    C52-   C49-   C51-   C54
  1445  1446  1443  1447   9   0.00   0.65084   3 ;    C52-   C53-   C50-   H82
  1445  1446  1443  1456   9   0.00   0.65084   3 ;    C52-   C53-   C50-   O43
  1445  1446  1443  1462   9   0.00   0.65084   3 ;    C52-   C53-   C50-   O45
  1445  1446  1454  1455   9   0.00   0.00000   0 ;    C52-   C53-   O42-   H88
  1446  1443  1462  1463   9   0.00   0.00000   0 ;    C53-   C50-   O45-   C55
  1446  1443  1462  1463   9   0.00   0.66944   2 ;    C53-   C50-   O45-   C55
  1446  1443  1462  1463   9   0.00   1.00416   3 ;    C53-   C50-   O45-   C55
  1446  1445  1442  1448   9   0.00   0.65084   3 ;    C53-   C52-   C49-   H83
  1446  1445  1452  1453   9   0.00   0.00000   0 ;    C53-   C52-   O41-   H87
  1447  1443  1446  1450   9   0.00   0.65084   3 ;    H82-   C50-   C53-   H85
  1447  1443  1446  1454   9   0.00   0.65084   3 ;    H82-   C50-   C53-   O42
  1447  1443  1462  1463   9   0.00   1.60387   3 ;    H82-   C50-   O45-   C55
  1448  1442  1444  1451   9   0.00   0.65084   3 ;    H83-   C49-   C51-   H86
  1448  1442  1444  1456   9   0.00   0.00000   0 ;    H83-   C49-   C51-   O43
  1448  1442  1444  1456   9   0.00   1.04600   1 ;    H83-   C49-   C51-   O43
  1448  1442  1444  1457   9   0.00   0.65084   3 ;    H83-   C49-   C51-   C54
  1448  1442  1445  1449   9   0.00   0.65084   3 ;    H83-   C49-   C52-   H84
  1448  1442  1445  1452   9   0.00   0.00000   0 ;    H83-   C49-   C52-   O41
  1448  1442  1445  1452   9   0.00   1.04600   1 ;    H83-   C49-   C52-   O41
  1449  1445  1446  1450   9   0.00   0.65084   3 ;    H84-   C52-   C53-   H85
  1449  1445  1446  1454   9   0.00   0.00000   0 ;    H84-   C52-   C53-   O42
  1449  1445  1446  1454   9   0.00   1.04600   1 ;    H84-   C52-   C53-   O42
  1449  1445  1452  1453   9   0.00   0.47279   3 ;    H84-   C52-   O41-   H87
  1450  1446  1443  1456   9   0.00   0.00000   0 ;    H85-   C53-   C50-   O43
  1450  1446  1443  1456   9   0.00   1.04600   1 ;    H85-   C53-   C50-   O43
  1450  1446  1443  1462   9   0.00   0.00000   0 ;    H85-   C53-   C50-   O45
  1450  1446  1443  1462   9   0.00   1.04600   1 ;    H85-   C53-   C50-   O45
  1450  1446  1445  1452   9   0.00   0.00000   0 ;    H85-   C53-   C52-   O41
  1450  1446  1445  1452   9   0.00   1.04600   1 ;    H85-   C53-   C52-   O41
  1450  1446  1454  1455   9   0.00   0.47279   3 ;    H85-   C53-   O42-   H88
  1451  1444  1457  1458   9   0.00   0.65084   3 ;    H86-   C51-   C54-   H89
  1451  1444  1457  1459   9   0.00   0.65084   3 ;    H86-   C51-   C54-   H90
  1451  1444  1457  1460   9   0.00   0.00000   0 ;    H86-   C51-   C54-   O44
  1451  1444  1457  1460   9   0.00   1.04600   1 ;    H86-   C51-   C54-   O44
  1452  1445  1446  1454   9   0.00   3.76560   3 ;    O41-   C52-   C53-   O42
  1452  1445  1446  1454   9   0.00   4.72792   2 ;    O41-   C52-   C53-   O42
  1454  1446  1443  1456   9   0.00   0.00000   0 ;    O42-   C53-   C50-   O43
  1454  1446  1443  1456   9   0.00   4.22584   3 ;    O42-   C53-   C50-   O43
  1454  1446  1443  1456   9   180.00   0.08368   1 ;    O42-   C53-   C50-   O43
  1454  1446  1443  1462   9   0.00   0.00000   0 ;    O42-   C53-   C50-   O45
  1454  1446  1443  1462   9   0.00   4.22584   3 ;    O42-   C53-   C50-   O45
  1454  1446  1443  1462   9   180.00   0.08368   1 ;    O42-   C53-   C50-   O45
  1456  1443  1462  1463   9   0.00   5.18816   2 ;    O43-   C50-   O45-   C55
  1456  1443  1462  1463   9   180.00   0.00000   3 ;    O43-   C50-   O45-   C55
  1456  1443  1462  1463   9   180.00   4.05848   1 ;    O43-   C50-   O45-   C55
  1456  1444  1457  1458   9   0.00   0.00000   0 ;    O43-   C51-   C54-   H89
  1456  1444  1457  1458   9   0.00   1.04600   1 ;    O43-   C51-   C54-   H89
  1456  1444  1457  1459   9   0.00   0.00000   0 ;    O43-   C51-   C54-   H90
  1456  1444  1457  1459   9   0.00   1.04600   1 ;    O43-   C51-   C54-   H90
  1456  1444  1457  1460   9   0.00   0.00000   0 ;    O43-   C51-   C54-   O44
  1456  1444  1457  1460   9   0.00   4.22584   3 ;    O43-   C51-   C54-   O44
  1456  1444  1457  1460   9   180.00   0.08368   1 ;    O43-   C51-   C54-   O44
  1458  1457  1460  1461   9   0.00   0.47279   3 ;    H89-   C54-   O44-   H91
  1459  1457  1460  1461   9   0.00   0.47279   3 ;    H90-   C54-   O44-   H91
  1462  1463  1465  1464   9   0.00   0.65084   3 ;    O45-   C55-   C57-   C56
  1462  1463  1465  1468   9   0.00   0.00000   0 ;    O45-   C55-   C57-   H92
  1462  1463  1465  1468   9   0.00   1.04600   1 ;    O45-   C55-   C57-   H92
  1462  1463  1465  1481   9   0.00   0.00000   0 ;    O45-   C55-   C57-   O49
  1462  1463  1465  1481   9   0.00   4.22584   3 ;    O45-   C55-   C57-   O49
  1462  1463  1465  1481   9   180.00   0.08368   1 ;    O45-   C55-   C57-   O49
  1462  1463  1466  1470   9   0.00   0.00000   0 ;    O45-   C55-   C58-   H94
  1462  1463  1466  1470   9   0.00   1.04600   1 ;    O45-   C55-   C58-   H94
  1462  1463  1466  1473   9   0.00   0.00000   0 ;    O45-   C55-   C58-   O46
  1462  1463  1466  1473   9   180.00   0.00000   2 ;    O45-   C55-   C58-   O46
  1462  1463  1466  1473   9   180.00   0.71128   1 ;    O45-   C55-   C58-   O46
  1462  1463  1466  1474   9   0.00   0.65084   3 ;    O45-   C55-   C58-   C60
  1463  1465  1464  1467   9   0.00   0.46024   1 ;    C55-   C57-   C56-   C59
  1463  1465  1464  1467   9   0.00   0.54392   3 ;    C55-   C57-   C56-   C59
  1463  1465  1464  1467   9   180.00   1.21336   2 ;    C55-   C57-   C56-   C59
  1463  1465  1464  1469   9   0.00   0.65084   3 ;    C55-   C57-   C56-   H93
  1463  1465  1464  1479   9   0.00   0.87864   3 ;    C55-   C57-   C56-   O48
  1463  1465  1481  1482   9   0.00   0.00000   0 ;    C55-   C57-   O49-  H101
  1463  1466  1473  1467   9   0.00   0.00000   0 ;    C55-   C58-   O46-   C59
  1463  1466  1473  1467   9   0.00   0.66944   2 ;    C55-   C58-   O46-   C59
  1463  1466  1473  1467   9   0.00   1.00416   3 ;    C55-   C58-   O46-   C59
  1463  1466  1474  1475   9   0.00   0.65084   3 ;    C55-   C58-   C60-   H97
  1463  1466  1474  1476   9   0.00   0.65084   3 ;    C55-   C58-   C60-   H98
  1463  1466  1474  1477   9   0.00   0.87864   3 ;    C55-   C58-   C60-   O47
  1464  1465  1463  1466   9   0.00   0.46024   1 ;    C56-   C57-   C55-   C58
  1464  1465  1463  1466   9   0.00   0.54392   3 ;    C56-   C57-   C55-   C58
  1464  1465  1463  1466   9   180.00   1.21336   2 ;    C56-   C57-   C55-   C58
  1464  1465  1463  1472   9   0.00   0.65084   3 ;    C56-   C57-   C55-   H96
  1464  1465  1481  1482   9   0.00   0.00000   0 ;    C56-   C57-   O49-  H101
  1464  1467  1473  1466   9   0.00   0.00000   0 ;    C56-   C59-   O46-   C58
  1464  1467  1473  1466   9   0.00   0.66944   2 ;    C56-   C59-   O46-   C58
  1464  1467  1473  1466   9   0.00   1.00416   3 ;    C56-   C59-   O46-   C58
  1464  1467  1483  1484   9   0.00   0.00000   0 ;    C56-   C59-   O50-  H102
  1465  1463  1466  1470   9   0.00   0.65084   3 ;    C57-   C55-   C58-   H94
  1465  1463  1466  1473   9   0.00   0.65084   3 ;    C57-   C55-   C58-   O46
  1465  1463  1466  1474   9   0.00   0.46024   1 ;    C57-   C55-   C58-   C60
  1465  1463  1466  1474   9   0.00   0.54392   3 ;    C57-   C55-   C58-   C60
  1465  1463  1466  1474   9   180.00   1.21336   2 ;    C57-   C55-   C58-   C60
  1465  1464  1467  1471   9   0.00   0.65084   3 ;    C57-   C56-   C59-   H95
  1465  1464  1467  1473   9   0.00   0.65084   3 ;    C57-   C56-   C59-   O46
  1465  1464  1467  1483   9   0.00   0.87864   3 ;    C57-   C56-   C59-   O50
  1465  1464  1479  1480   9   0.00   0.00000   0 ;    C57-   C56-   O48-  H100
  1466  1463  1465  1468   9   0.00   0.65084   3 ;    C58-   C55-   C57-   H92
  1466  1463  1465  1481   9   0.00   0.87864   3 ;    C58-   C55-   C57-   O49
  1466  1473  1467  1471   9   0.00   1.60387   3 ;    C58-   O46-   C59-   H95
  1466  1473  1467  1483   9   0.00   1.60387   3 ;    C58-   O46-   C59-   O50
  1466  1474  1477  1478   9   0.00   0.00000   0 ;    C58-   C60-   O47-   H99
  1467  1464  1465  1468   9   0.00   0.65084   3 ;    C59-   C56-   C57-   H92
  1467  1464  1465  1481   9   0.00   0.87864   3 ;    C59-   C56-   C57-   O49
  1467  1464  1479  1480   9   0.00   0.00000   0 ;    C59-   C56-   O48-  H100
  1467  1473  1466  1470   9   0.00   1.41001   3 ;    C59-   O46-   C58-   H94
  1467  1473  1466  1474   9   0.00   0.00000   0 ;    C59-   O46-   C58-   C60
  1467  1473  1466  1474   9   0.00   0.66944   2 ;    C59-   O46-   C58-   C60
  1467  1473  1466  1474   9   0.00   1.00416   3 ;    C59-   O46-   C58-   C60
  1468  1465  1463  1472   9   0.00   0.65084   3 ;    H92-   C57-   C55-   H96
  1468  1465  1464  1469   9   0.00   0.65084   3 ;    H92-   C57-   C56-   H93
  1468  1465  1464  1479   9   0.00   0.00000   0 ;    H92-   C57-   C56-   O48
  1468  1465  1464  1479   9   0.00   1.04600   1 ;    H92-   C57-   C56-   O48
  1468  1465  1481  1482   9   0.00   0.47279   3 ;    H92-   C57-   O49-  H101
  1469  1464  1465  1481   9   0.00   0.00000   0 ;    H93-   C56-   C57-   O49
  1469  1464  1465  1481   9   0.00   1.04600   1 ;    H93-   C56-   C57-   O49
  1469  1464  1467  1471   9   0.00   0.65084   3 ;    H93-   C56-   C59-   H95
  1469  1464  1467  1473   9   0.00   0.00000   0 ;    H93-   C56-   C59-   O46
  1469  1464  1467  1473   9   0.00   1.04600   1 ;    H93-   C56-   C59-   O46
  1469  1464  1467  1483   9   0.00   0.00000   0 ;    H93-   C56-   C59-   O50
  1469  1464  1467  1483   9   0.00   1.04600   1 ;    H93-   C56-   C59-   O50
  1469  1464  1479  1480   9   0.00   0.47279   3 ;    H93-   C56-   O48-  H100
  1470  1466  1463  1472   9   0.00   0.65084   3 ;    H94-   C58-   C55-   H96
  1470  1466  1474  1475   9   0.00   0.65084   3 ;    H94-   C58-   C60-   H97
  1470  1466  1474  1476   9   0.00   0.65084   3 ;    H94-   C58-   C60-   H98
  1470  1466  1474  1477   9   0.00   0.00000   0 ;    H94-   C58-   C60-   O47
  1470  1466  1474  1477   9   0.00   1.04600   1 ;    H94-   C58-   C60-   O47
  1471  1467  1464  1479   9   0.00   0.65084   3 ;    H95-   C59-   C56-   O48
  1471  1467  1483  1484   9   0.00   0.69733   3 ;    H95-   C59-   O50-  H102
  1472  1463  1465  1481   9   0.00   0.00000   0 ;    H96-   C55-   C57-   O49
  1472  1463  1465  1481   9   0.00   1.04600   1 ;    H96-   C55-   C57-   O49
  1472  1463  1466  1473   9   0.00   0.00000   0 ;    H96-   C55-   C58-   O46
  1472  1463  1466  1473   9   0.00   1.04600   1 ;    H96-   C55-   C58-   O46
  1472  1463  1466  1474   9   0.00   0.65084   3 ;    H96-   C55-   C58-   C60
  1473  1466  1474  1475   9   0.00   0.00000   0 ;    O46-   C58-   C60-   H97
  1473  1466  1474  1475   9   0.00   1.04600   1 ;    O46-   C58-   C60-   H97
  1473  1466  1474  1476   9   0.00   0.00000   0 ;    O46-   C58-   C60-   H98
  1473  1466  1474  1476   9   0.00   1.04600   1 ;    O46-   C58-   C60-   H98
  1473  1466  1474  1477   9   0.00   0.00000   0 ;    O46-   C58-   C60-   O47
  1473  1466  1474  1477   9   0.00   4.22584   3 ;    O46-   C58-   C60-   O47
  1473  1466  1474  1477   9   180.00   0.08368   1 ;    O46-   C58-   C60-   O47
  1473  1467  1464  1479   9   0.00   0.00000   0 ;    O46-   C59-   C56-   O48
  1473  1467  1464  1479   9   0.00   4.22584   3 ;    O46-   C59-   C56-   O48
  1473  1467  1464  1479   9   180.00   0.08368   1 ;    O46-   C59-   C56-   O48
  1473  1467  1483  1484   9   0.00   0.69733   3 ;    O46-   C59-   O50-  H102
  1475  1474  1477  1478   9   0.00   0.47279   3 ;    H97-   C60-   O47-   H99
  1476  1474  1477  1478   9   0.00   0.47279   3 ;    H98-   C60-   O47-   H99
  1479  1464  1465  1481   9   0.00   3.76560   3 ;    O48-   C56-   C57-   O49
  1479  1464  1465  1481   9   0.00   4.72792   2 ;    O48-   C56-   C57-   O49
  1479  1464  1467  1483   9   0.00   3.76560   3 ;    O48-   C56-   C59-   O50
  1479  1464  1467  1483   9   0.00   4.72792   2 ;    O48-   C56-   C59-   O50
  1485  1486  1488  1495   9   0.00   0.65084   3 ;     H1-    C1-    C3-    H6
  1485  1486  1488  1500   9   0.00   0.00000   0 ;     H1-    C1-    C3-    O3
  1485  1486  1488  1500   9   0.00   1.04600   1 ;     H1-    C1-    C3-    O3
  1485  1486  1488  1501   9   0.00   0.33472   3 ;     H1-    C1-    C3-    C6
  1485  1486  1489  1490   9   0.00   0.33472   3 ;     H1-    C1-    C4-    C5
  1485  1486  1489  1493   9   0.00   0.65084   3 ;     H1-    C1-    C4-    H4
  1485  1486  1489  1496   9   0.00   0.75312   3 ;     H1-    C1-    C4-    O1
  1485  1486  1489  1496   9   0.00   2.13384   1 ;     H1-    C1-    C4-    O1
  1486  1488  1500  1487   9   0.00   0.00000   0 ;     C1-    C3-    O3-    C2
  1486  1488  1500  1487   9   0.00   0.66944   2 ;     C1-    C3-    O3-    C2
  1486  1488  1500  1487   9   0.00   1.00416   3 ;     C1-    C3-    O3-    C2
  1486  1488  1501  1502   9   0.00   0.65084   3 ;     C1-    C3-    C6-    H9
  1486  1488  1501  1503   9   0.00   0.65084   3 ;     C1-    C3-    C6-   H10
  1486  1488  1501  1504   9   0.00   0.87864   3 ;     C1-    C3-    C6-    O4
  1486  1489  1490  1487   9   0.00   0.46024   1 ;     C1-    C4-    C5-    C2
  1486  1489  1490  1487   9   0.00   0.54392   3 ;     C1-    C4-    C5-    C2
  1486  1489  1490  1487   9   180.00   1.21336   2 ;     C1-    C4-    C5-    C2
  1486  1489  1490  1494   9   0.00   0.65084   3 ;     C1-    C4-    C5-    H5
  1486  1489  1490  1498   9   0.00   0.87864   3 ;     C1-    C4-    C5-    O2
  1486  1489  1496  1497   9   0.00   0.00000   0 ;     C1-    C4-    O1-    H7
  1487  1490  1489  1493   9   0.00   0.65084   3 ;     C2-    C5-    C4-    H4
  1487  1490  1489  1496   9   0.00   0.87864   3 ;     C2-    C5-    C4-    O1
  1487  1490  1498  1499   9   0.00   0.00000   0 ;     C2-    C5-    O2-    H8
  1487  1500  1488  1495   9   0.00   1.41001   3 ;     C2-    O3-    C3-    H6
  1487  1500  1488  1501   9   0.00   0.00000   0 ;     C2-    O3-    C3-    C6
  1487  1500  1488  1501   9   0.00   0.66944   2 ;     C2-    O3-    C3-    C6
  1487  1500  1488  1501   9   0.00   1.00416   3 ;     C2-    O3-    C3-    C6
  1487  1506  1507  1509   9   0.00   0.00000   0 ;     C2-    O5-    C7-    C9
  1487  1506  1507  1509   9   0.00   0.66944   2 ;     C2-    O5-    C7-    C9
  1487  1506  1507  1509   9   0.00   1.00416   3 ;     C2-    O5-    C7-    C9
  1487  1506  1507  1510   9   0.00   0.00000   0 ;     C2-    O5-    C7-   C10
  1487  1506  1507  1510   9   0.00   0.66944   2 ;     C2-    O5-    C7-   C10
  1487  1506  1507  1510   9   0.00   1.00416   3 ;     C2-    O5-    C7-   C10
  1487  1506  1507  1516   9   0.00   1.41001   3 ;     C2-    O5-    C7-   H16
  1488  1486  1489  1490   9   0.00   0.46024   1 ;     C3-    C1-    C4-    C5
  1488  1486  1489  1490   9   0.00   0.54392   3 ;     C3-    C1-    C4-    C5
  1488  1486  1489  1490   9   180.00   1.21336   2 ;     C3-    C1-    C4-    C5
  1488  1486  1489  1493   9   0.00   0.65084   3 ;     C3-    C1-    C4-    H4
  1488  1486  1489  1496   9   0.00   0.87864   3 ;     C3-    C1-    C4-    O1
  1488  1500  1487  1490   9   0.00   0.00000   0 ;     C3-    O3-    C2-    C5
  1488  1500  1487  1490   9   0.00   0.66944   2 ;     C3-    O3-    C2-    C5
  1488  1500  1487  1490   9   0.00   1.00416   3 ;     C3-    O3-    C2-    C5
  1488  1500  1487  1491   9   0.00   1.60387   3 ;     C3-    O3-    C2-    H2
  1488  1500  1487  1506   9   0.00   5.18816   2 ;     C3-    O3-    C2-    O5
  1488  1500  1487  1506   9   180.00   0.00000   3 ;     C3-    O3-    C2-    O5
  1488  1500  1487  1506   9   180.00   4.05848   1 ;     C3-    O3-    C2-    O5
  1488  1501  1504  1505   9   0.00   0.00000   0 ;     C3-    C6-    O4-   H11
  1489  1486  1488  1495   9   0.00   0.65084   3 ;     C4-    C1-    C3-    H6
  1489  1486  1488  1500   9   0.00   0.65084   3 ;     C4-    C1-    C3-    O3
  1489  1486  1488  1501   9   0.00   0.46024   1 ;     C4-    C1-    C3-    C6
  1489  1486  1488  1501   9   0.00   0.54392   3 ;     C4-    C1-    C3-    C6
  1489  1486  1488  1501   9   180.00   1.21336   2 ;     C4-    C1-    C3-    C6
  1489  1490  1487  1491   9   0.00   0.65084   3 ;     C4-    C5-    C2-    H2
  1489  1490  1487  1500   9   0.00   0.65084   3 ;     C4-    C5-    C2-    O3
  1489  1490  1487  1506   9   0.00   0.65084   3 ;     C4-    C5-    C2-    O5
  1489  1490  1498  1499   9   0.00   0.00000   0 ;     C4-    C5-    O2-    H8
  1490  1487  1506  1507   9   0.00   0.00000   0 ;     C5-    C2-    O5-    C7
  1490  1487  1506  1507   9   0.00   0.66944   2 ;     C5-    C2-    O5-    C7
  1490  1487  1506  1507   9   0.00   1.00416   3 ;     C5-    C2-    O5-    C7
  1490  1489  1486  1492   9   0.00   0.33472   3 ;     C5-    C4-    C1-    H3
  1490  1489  1496  1497   9   0.00   0.00000   0 ;     C5-    C4-    O1-    H7
  1491  1487  1490  1494   9   0.00   0.65084   3 ;     H2-    C2-    C5-    H5
  1491  1487  1490  1498   9   0.00   0.65084   3 ;     H2-    C2-    C5-    O2
  1491  1487  1506  1507   9   0.00   1.60387   3 ;     H2-    C2-    O5-    C7
  1492  1486  1488  1495   9   0.00   0.65084   3 ;     H3-    C1-    C3-    H6
  1492  1486  1488  1500   9   0.00   0.00000   0 ;     H3-    C1-    C3-    O3
  1492  1486  1488  1500   9   0.00   1.04600   1 ;     H3-    C1-    C3-    O3
  1492  1486  1488  1501   9   0.00   0.33472   3 ;     H3-    C1-    C3-    C6
  1492  1486  1489  1493   9   0.00   0.65084   3 ;     H3-    C1-    C4-    H4
  1492  1486  1489  1496   9   0.00   0.75312   3 ;     H3-    C1-    C4-    O1
  1492  1486  1489  1496   9   0.00   2.13384   1 ;     H3-    C1-    C4-    O1
  1493  1489  1490  1494   9   0.00   0.65084   3 ;     H4-    C4-    C5-    H5
  1493  1489  1490  1498   9   0.00   0.00000   0 ;     H4-    C4-    C5-    O2
  1493  1489  1490  1498   9   0.00   1.04600   1 ;     H4-    C4-    C5-    O2
  1493  1489  1496  1497   9   0.00   0.47279   3 ;     H4-    C4-    O1-    H7
  1494  1490  1487  1500   9   0.00   0.00000   0 ;     H5-    C5-    C2-    O3
  1494  1490  1487  1500   9   0.00   1.04600   1 ;     H5-    C5-    C2-    O3
  1494  1490  1487  1506   9   0.00   0.00000   0 ;     H5-    C5-    C2-    O5
  1494  1490  1487  1506   9   0.00   1.04600   1 ;     H5-    C5-    C2-    O5
  1494  1490  1489  1496   9   0.00   0.00000   0 ;     H5-    C5-    C4-    O1
  1494  1490  1489  1496   9   0.00   1.04600   1 ;     H5-    C5-    C4-    O1
  1494  1490  1498  1499   9   0.00   0.47279   3 ;     H5-    C5-    O2-    H8
  1495  1488  1501  1502   9   0.00   0.65084   3 ;     H6-    C3-    C6-    H9
  1495  1488  1501  1503   9   0.00   0.65084   3 ;     H6-    C3-    C6-   H10
  1495  1488  1501  1504   9   0.00   0.00000   0 ;     H6-    C3-    C6-    O4
  1495  1488  1501  1504   9   0.00   1.04600   1 ;     H6-    C3-    C6-    O4
  1496  1489  1490  1498   9   0.00   3.76560   3 ;     O1-    C4-    C5-    O2
  1496  1489  1490  1498   9   0.00   4.72792   2 ;     O1-    C4-    C5-    O2
  1498  1490  1487  1500   9   0.00   0.00000   0 ;     O2-    C5-    C2-    O3
  1498  1490  1487  1500   9   0.00   4.22584   3 ;     O2-    C5-    C2-    O3
  1498  1490  1487  1500   9   180.00   0.08368   1 ;     O2-    C5-    C2-    O3
  1498  1490  1487  1506   9   0.00   0.00000   0 ;     O2-    C5-    C2-    O5
  1498  1490  1487  1506   9   0.00   4.22584   3 ;     O2-    C5-    C2-    O5
  1498  1490  1487  1506   9   180.00   0.08368   1 ;     O2-    C5-    C2-    O5
  1500  1487  1506  1507   9   0.00   5.18816   2 ;     O3-    C2-    O5-    C7
  1500  1487  1506  1507   9   180.00   0.00000   3 ;     O3-    C2-    O5-    C7
  1500  1487  1506  1507   9   180.00   4.05848   1 ;     O3-    C2-    O5-    C7
  1500  1488  1501  1502   9   0.00   0.00000   0 ;     O3-    C3-    C6-    H9
  1500  1488  1501  1502   9   0.00   1.04600   1 ;     O3-    C3-    C6-    H9
  1500  1488  1501  1503   9   0.00   0.00000   0 ;     O3-    C3-    C6-   H10
  1500  1488  1501  1503   9   0.00   1.04600   1 ;     O3-    C3-    C6-   H10
  1500  1488  1501  1504   9   0.00   0.00000   0 ;     O3-    C3-    C6-    O4
  1500  1488  1501  1504   9   0.00   4.22584   3 ;     O3-    C3-    C6-    O4
  1500  1488  1501  1504   9   180.00   0.08368   1 ;     O3-    C3-    C6-    O4
  1502  1501  1504  1505   9   0.00   0.47279   3 ;     H9-    C6-    O4-   H11
  1503  1501  1504  1505   9   0.00   0.47279   3 ;    H10-    C6-    O4-   H11
  1506  1507  1509  1508   9   0.00   0.65084   3 ;     O5-    C7-    C9-    C8
  1506  1507  1509  1512   9   0.00   0.00000   0 ;     O5-    C7-    C9-   H12
  1506  1507  1509  1512   9   0.00   1.04600   1 ;     O5-    C7-    C9-   H12
  1506  1507  1509  1525   9   0.00   0.00000   0 ;     O5-    C7-    C9-    O9
  1506  1507  1509  1525   9   0.00   4.22584   3 ;     O5-    C7-    C9-    O9
  1506  1507  1509  1525   9   180.00   0.08368   1 ;     O5-    C7-    C9-    O9
  1506  1507  1510  1514   9   0.00   0.00000   0 ;     O5-    C7-   C10-   H14
  1506  1507  1510  1514   9   0.00   1.04600   1 ;     O5-    C7-   C10-   H14
  1506  1507  1510  1517   9   0.00   0.00000   0 ;     O5-    C7-   C10-    O6
  1506  1507  1510  1517   9   180.00   0.00000   2 ;     O5-    C7-   C10-    O6
  1506  1507  1510  1517   9   180.00   0.71128   1 ;     O5-    C7-   C10-    O6
  1506  1507  1510  1518   9   0.00   0.65084   3 ;     O5-    C7-   C10-   C12
  1507  1509  1508  1511   9   0.00   0.46024   1 ;     C7-    C9-    C8-   C11
  1507  1509  1508  1511   9   0.00   0.54392   3 ;     C7-    C9-    C8-   C11
  1507  1509  1508  1511   9   180.00   1.21336   2 ;     C7-    C9-    C8-   C11
  1507  1509  1508  1513   9   0.00   0.65084   3 ;     C7-    C9-    C8-   H13
  1507  1509  1508  1523   9   0.00   0.87864   3 ;     C7-    C9-    C8-    O8
  1507  1509  1525  1526   9   0.00   0.00000   0 ;     C7-    C9-    O9-   H21
  1507  1510  1517  1511   9   0.00   0.00000   0 ;     C7-   C10-    O6-   C11
  1507  1510  1517  1511   9   0.00   0.66944   2 ;     C7-   C10-    O6-   C11
  1507  1510  1517  1511   9   0.00   1.00416   3 ;     C7-   C10-    O6-   C11
  1507  1510  1518  1519   9   0.00   0.65084   3 ;     C7-   C10-   C12-   H17
  1507  1510  1518  1520   9   0.00   0.65084   3 ;     C7-   C10-   C12-   H18
  1507  1510  1518  1521   9   0.00   0.87864   3 ;     C7-   C10-   C12-    O7
  1508  1509  1507  1510   9   0.00   0.46024   1 ;     C8-    C9-    C7-   C10
  1508  1509  1507  1510   9   0.00   0.54392   3 ;     C8-    C9-    C7-   C10
  1508  1509  1507  1510   9   180.00   1.21336   2 ;     C8-    C9-    C7-   C10
  1508  1509  1507  1516   9   0.00   0.65084   3 ;     C8-    C9-    C7-   H16
  1508  1509  1525  1526   9   0.00   0.00000   0 ;     C8-    C9-    O9-   H21
  1508  1511  1517  1510   9   0.00   0.00000   0 ;     C8-   C11-    O6-   C10
  1508  1511  1517  1510   9   0.00   0.66944   2 ;     C8-   C11-    O6-   C10
  1508  1511  1517  1510   9   0.00   1.00416   3 ;     C8-   C11-    O6-   C10
  1508  1511  1527  1528   9   0.00   0.00000   0 ;     C8-   C11-   O10-   C13
  1508  1511  1527  1528   9   0.00   0.66944   2 ;     C8-   C11-   O10-   C13
  1508  1511  1527  1528   9   0.00   1.00416   3 ;     C8-   C11-   O10-   C13
  1509  1507  1510  1514   9   0.00   0.65084   3 ;     C9-    C7-   C10-   H14
  1509  1507  1510  1517   9   0.00   0.65084   3 ;     C9-    C7-   C10-    O6
  1509  1507  1510  1518   9   0.00   0.46024   1 ;     C9-    C7-   C10-   C12
  1509  1507  1510  1518   9   0.00   0.54392   3 ;     C9-    C7-   C10-   C12
  1509  1507  1510  1518   9   180.00   1.21336   2 ;     C9-    C7-   C10-   C12
  1509  1508  1511  1515   9   0.00   0.65084   3 ;     C9-    C8-   C11-   H15
  1509  1508  1511  1517   9   0.00   0.65084   3 ;     C9-    C8-   C11-    O6
  1509  1508  1511  1527   9   0.00   0.65084   3 ;     C9-    C8-   C11-   O10
  1509  1508  1523  1524   9   0.00   0.00000   0 ;     C9-    C8-    O8-   H20
  1510  1507  1509  1512   9   0.00   0.65084   3 ;    C10-    C7-    C9-   H12
  1510  1507  1509  1525   9   0.00   0.87864   3 ;    C10-    C7-    C9-    O9
  1510  1517  1511  1515   9   0.00   1.60387   3 ;    C10-    O6-   C11-   H15
  1510  1517  1511  1527   9   0.00   5.18816   2 ;    C10-    O6-   C11-   O10
  1510  1517  1511  1527   9   180.00   0.00000   3 ;    C10-    O6-   C11-   O10
  1510  1517  1511  1527   9   180.00   4.05848   1 ;    C10-    O6-   C11-   O10
  1510  1518  1521  1522   9   0.00   0.00000   0 ;    C10-   C12-    O7-   H19
  1511  1508  1509  1512   9   0.00   0.65084   3 ;    C11-    C8-    C9-   H12
  1511  1508  1509  1525   9   0.00   0.87864   3 ;    C11-    C8-    C9-    O9
  1511  1508  1523  1524   9   0.00   0.00000   0 ;    C11-    C8-    O8-   H20
  1511  1517  1510  1514   9   0.00   1.41001   3 ;    C11-    O6-   C10-   H14
  1511  1517  1510  1518   9   0.00   0.00000   0 ;    C11-    O6-   C10-   C12
  1511  1517  1510  1518   9   0.00   0.66944   2 ;    C11-    O6-   C10-   C12
  1511  1517  1510  1518   9   0.00   1.00416   3 ;    C11-    O6-   C10-   C12
  1511  1527  1528  1530   9   0.00   0.00000   0 ;    C11-   O10-   C13-   C15
  1511  1527  1528  1530   9   0.00   0.66944   2 ;    C11-   O10-   C13-   C15
  1511  1527  1528  1530   9   0.00   1.00416   3 ;    C11-   O10-   C13-   C15
  1511  1527  1528  1531   9   0.00   0.00000   0 ;    C11-   O10-   C13-   C16
  1511  1527  1528  1531   9   0.00   0.66944   2 ;    C11-   O10-   C13-   C16
  1511  1527  1528  1531   9   0.00   1.00416   3 ;    C11-   O10-   C13-   C16
  1511  1527  1528  1534   9   0.00   1.41001   3 ;    C11-   O10-   C13-   H23
  1512  1509  1507  1516   9   0.00   0.65084   3 ;    H12-    C9-    C7-   H16
  1512  1509  1508  1513   9   0.00   0.65084   3 ;    H12-    C9-    C8-   H13
  1512  1509  1508  1523   9   0.00   0.00000   0 ;    H12-    C9-    C8-    O8
  1512  1509  1508  1523   9   0.00   1.04600   1 ;    H12-    C9-    C8-    O8
  1512  1509  1525  1526   9   0.00   0.47279   3 ;    H12-    C9-    O9-   H21
  1513  1508  1509  1525   9   0.00   0.00000   0 ;    H13-    C8-    C9-    O9
  1513  1508  1509  1525   9   0.00   1.04600   1 ;    H13-    C8-    C9-    O9
  1513  1508  1511  1515   9   0.00   0.65084   3 ;    H13-    C8-   C11-   H15
  1513  1508  1511  1517   9   0.00   0.00000   0 ;    H13-    C8-   C11-    O6
  1513  1508  1511  1517   9   0.00   1.04600   1 ;    H13-    C8-   C11-    O6
  1513  1508  1511  1527   9   0.00   0.00000   0 ;    H13-    C8-   C11-   O10
  1513  1508  1511  1527   9   0.00   1.04600   1 ;    H13-    C8-   C11-   O10
  1513  1508  1523  1524   9   0.00   0.47279   3 ;    H13-    C8-    O8-   H20
  1514  1510  1507  1516   9   0.00   0.65084   3 ;    H14-   C10-    C7-   H16
  1514  1510  1518  1519   9   0.00   0.65084   3 ;    H14-   C10-   C12-   H17
  1514  1510  1518  1520   9   0.00   0.65084   3 ;    H14-   C10-   C12-   H18
  1514  1510  1518  1521   9   0.00   0.00000   0 ;    H14-   C10-   C12-    O7
  1514  1510  1518  1521   9   0.00   1.04600   1 ;    H14-   C10-   C12-    O7
  1515  1511  1508  1523   9   0.00   0.65084   3 ;    H15-   C11-    C8-    O8
  1515  1511  1527  1528   9   0.00   1.60387   3 ;    H15-   C11-   O10-   C13
  1516  1507  1509  1525   9   0.00   0.00000   0 ;    H16-    C7-    C9-    O9
  1516  1507  1509  1525   9   0.00   1.04600   1 ;    H16-    C7-    C9-    O9
  1516  1507  1510  1517   9   0.00   0.00000   0 ;    H16-    C7-   C10-    O6
  1516  1507  1510  1517   9   0.00   1.04600   1 ;    H16-    C7-   C10-    O6
  1516  1507  1510  1518   9   0.00   0.65084   3 ;    H16-    C7-   C10-   C12
  1517  1510  1518  1519   9   0.00   0.00000   0 ;     O6-   C10-   C12-   H17
  1517  1510  1518  1519   9   0.00   1.04600   1 ;     O6-   C10-   C12-   H17
  1517  1510  1518  1520   9   0.00   0.00000   0 ;     O6-   C10-   C12-   H18
  1517  1510  1518  1520   9   0.00   1.04600   1 ;     O6-   C10-   C12-   H18
  1517  1510  1518  1521   9   0.00   0.00000   0 ;     O6-   C10-   C12-    O7
  1517  1510  1518  1521   9   0.00   4.22584   3 ;     O6-   C10-   C12-    O7
  1517  1510  1518  1521   9   180.00   0.08368   1 ;     O6-   C10-   C12-    O7
  1517  1511  1508  1523   9   0.00   0.00000   0 ;     O6-   C11-    C8-    O8
  1517  1511  1508  1523   9   0.00   4.22584   3 ;     O6-   C11-    C8-    O8
  1517  1511  1508  1523   9   180.00   0.08368   1 ;     O6-   C11-    C8-    O8
  1517  1511  1527  1528   9   0.00   5.18816   2 ;     O6-   C11-   O10-   C13
  1517  1511  1527  1528   9   180.00   0.00000   3 ;     O6-   C11-   O10-   C13
  1517  1511  1527  1528   9   180.00   4.05848   1 ;     O6-   C11-   O10-   C13
  1519  1518  1521  1522   9   0.00   0.47279   3 ;    H17-   C12-    O7-   H19
  1520  1518  1521  1522   9   0.00   0.47279   3 ;    H18-   C12-    O7-   H19
  1523  1508  1509  1525   9   0.00   3.76560   3 ;     O8-    C8-    C9-    O9
  1523  1508  1509  1525   9   0.00   4.72792   2 ;     O8-    C8-    C9-    O9
  1523  1508  1511  1527   9   0.00   0.00000   0 ;     O8-    C8-   C11-   O10
  1523  1508  1511  1527   9   0.00   4.22584   3 ;     O8-    C8-   C11-   O10
  1523  1508  1511  1527   9   180.00   0.08368   1 ;     O8-    C8-   C11-   O10
  1527  1528  1530  1537   9   0.00   0.00000   0 ;    O10-   C13-   C15-   H26
  1527  1528  1530  1537   9   0.00   1.04600   1 ;    O10-   C13-   C15-   H26
  1527  1528  1530  1542   9   0.00   0.00000   0 ;    O10-   C13-   C15-   O13
  1527  1528  1530  1542   9   180.00   0.00000   2 ;    O10-   C13-   C15-   O13
  1527  1528  1530  1542   9   180.00   0.71128   1 ;    O10-   C13-   C15-   O13
  1527  1528  1530  1543   9   0.00   0.65084   3 ;    O10-   C13-   C15-   C18
  1527  1528  1531  1532   9   0.00   0.65084   3 ;    O10-   C13-   C16-   C17
  1527  1528  1531  1535   9   0.00   0.00000   0 ;    O10-   C13-   C16-   H24
  1527  1528  1531  1535   9   0.00   1.04600   1 ;    O10-   C13-   C16-   H24
  1527  1528  1531  1538   9   0.00   0.00000   0 ;    O10-   C13-   C16-   O11
  1527  1528  1531  1538   9   0.00   4.22584   3 ;    O10-   C13-   C16-   O11
  1527  1528  1531  1538   9   180.00   0.08368   1 ;    O10-   C13-   C16-   O11
  1528  1530  1542  1529   9   0.00   0.00000   0 ;    C13-   C15-   O13-   C14
  1528  1530  1542  1529   9   0.00   0.66944   2 ;    C13-   C15-   O13-   C14
  1528  1530  1542  1529   9   0.00   1.00416   3 ;    C13-   C15-   O13-   C14
  1528  1530  1543  1544   9   0.00   0.65084   3 ;    C13-   C15-   C18-   H29
  1528  1530  1543  1545   9   0.00   0.65084   3 ;    C13-   C15-   C18-   H30
  1528  1530  1543  1546   9   0.00   0.87864   3 ;    C13-   C15-   C18-   O14
  1528  1531  1532  1529   9   0.00   0.46024   1 ;    C13-   C16-   C17-   C14
  1528  1531  1532  1529   9   0.00   0.54392   3 ;    C13-   C16-   C17-   C14
  1528  1531  1532  1529   9   180.00   1.21336   2 ;    C13-   C16-   C17-   C14
  1528  1531  1532  1536   9   0.00   0.65084   3 ;    C13-   C16-   C17-   H25
  1528  1531  1532  1540   9   0.00   0.87864   3 ;    C13-   C16-   C17-   O12
  1528  1531  1538  1539   9   0.00   0.00000   0 ;    C13-   C16-   O11-   H27
  1529  1532  1531  1535   9   0.00   0.65084   3 ;    C14-   C17-   C16-   H24
  1529  1532  1531  1538   9   0.00   0.87864   3 ;    C14-   C17-   C16-   O11
  1529  1532  1540  1541   9   0.00   0.00000   0 ;    C14-   C17-   O12-   H28
  1529  1542  1530  1537   9   0.00   1.41001   3 ;    C14-   O13-   C15-   H26
  1529  1542  1530  1543   9   0.00   0.00000   0 ;    C14-   O13-   C15-   C18
  1529  1542  1530  1543   9   0.00   0.66944   2 ;    C14-   O13-   C15-   C18
  1529  1542  1530  1543   9   0.00   1.00416   3 ;    C14-   O13-   C15-   C18
  1529  1548  1549  1551   9   0.00   0.00000   0 ;    C14-   O15-   C19-   C21
  1529  1548  1549  1551   9   0.00   0.66944   2 ;    C14-   O15-   C19-   C21
  1529  1548  1549  1551   9   0.00   1.00416   3 ;    C14-   O15-   C19-   C21
  1529  1548  1549  1552   9   0.00   0.00000   0 ;    C14-   O15-   C19-   C22
  1529  1548  1549  1552   9   0.00   0.66944   2 ;    C14-   O15-   C19-   C22
  1529  1548  1549  1552   9   0.00   1.00416   3 ;    C14-   O15-   C19-   C22
  1529  1548  1549  1558   9   0.00   1.41001   3 ;    C14-   O15-   C19-   H36
  1530  1528  1531  1532   9   0.00   0.46024   1 ;    C15-   C13-   C16-   C17
  1530  1528  1531  1532   9   0.00   0.54392   3 ;    C15-   C13-   C16-   C17
  1530  1528  1531  1532   9   180.00   1.21336   2 ;    C15-   C13-   C16-   C17
  1530  1528  1531  1535   9   0.00   0.65084   3 ;    C15-   C13-   C16-   H24
  1530  1528  1531  1538   9   0.00   0.87864   3 ;    C15-   C13-   C16-   O11
  1530  1542  1529  1532   9   0.00   0.00000   0 ;    C15-   O13-   C14-   C17
  1530  1542  1529  1532   9   0.00   0.66944   2 ;    C15-   O13-   C14-   C17
  1530  1542  1529  1532   9   0.00   1.00416   3 ;    C15-   O13-   C14-   C17
  1530  1542  1529  1533   9   0.00   1.60387   3 ;    C15-   O13-   C14-   H22
  1530  1542  1529  1548   9   0.00   5.18816   2 ;    C15-   O13-   C14-   O15
  1530  1542  1529  1548   9   180.00   0.00000   3 ;    C15-   O13-   C14-   O15
  1530  1542  1529  1548   9   180.00   4.05848   1 ;    C15-   O13-   C14-   O15
  1530  1543  1546  1547   9   0.00   0.00000   0 ;    C15-   C18-   O14-   H31
  1531  1528  1530  1537   9   0.00   0.65084   3 ;    C16-   C13-   C15-   H26
  1531  1528  1530  1542   9   0.00   0.65084   3 ;    C16-   C13-   C15-   O13
  1531  1528  1530  1543   9   0.00   0.46024   1 ;    C16-   C13-   C15-   C18
  1531  1528  1530  1543   9   0.00   0.54392   3 ;    C16-   C13-   C15-   C18
  1531  1528  1530  1543   9   180.00   1.21336   2 ;    C16-   C13-   C15-   C18
  1531  1532  1529  1533   9   0.00   0.65084   3 ;    C16-   C17-   C14-   H22
  1531  1532  1529  1542   9   0.00   0.65084   3 ;    C16-   C17-   C14-   O13
  1531  1532  1529  1548   9   0.00   0.65084   3 ;    C16-   C17-   C14-   O15
  1531  1532  1540  1541   9   0.00   0.00000   0 ;    C16-   C17-   O12-   H28
  1532  1529  1548  1549   9   0.00   0.00000   0 ;    C17-   C14-   O15-   C19
  1532  1529  1548  1549   9   0.00   0.66944   2 ;    C17-   C14-   O15-   C19
  1532  1529  1548  1549   9   0.00   1.00416   3 ;    C17-   C14-   O15-   C19
  1532  1531  1528  1534   9   0.00   0.65084   3 ;    C17-   C16-   C13-   H23
  1532  1531  1538  1539   9   0.00   0.00000   0 ;    C17-   C16-   O11-   H27
  1533  1529  1532  1536   9   0.00   0.65084   3 ;    H22-   C14-   C17-   H25
  1533  1529  1532  1540   9   0.00   0.65084   3 ;    H22-   C14-   C17-   O12
  1533  1529  1548  1549   9   0.00   1.60387   3 ;    H22-   C14-   O15-   C19
  1534  1528  1530  1537   9   0.00   0.65084   3 ;    H23-   C13-   C15-   H26
  1534  1528  1530  1542   9   0.00   0.00000   0 ;    H23-   C13-   C15-   O13
  1534  1528  1530  1542   9   0.00   1.04600   1 ;    H23-   C13-   C15-   O13
  1534  1528  1530  1543   9   0.00   0.65084   3 ;    H23-   C13-   C15-   C18
  1534  1528  1531  1535   9   0.00   0.65084   3 ;    H23-   C13-   C16-   H24
  1534  1528  1531  1538   9   0.00   0.00000   0 ;    H23-   C13-   C16-   O11
  1534  1528  1531  1538   9   0.00   1.04600   1 ;    H23-   C13-   C16-   O11
  1535  1531  1532  1536   9   0.00   0.65084   3 ;    H24-   C16-   C17-   H25
  1535  1531  1532  1540   9   0.00   0.00000   0 ;    H24-   C16-   C17-   O12
  1535  1531  1532  1540   9   0.00   1.04600   1 ;    H24-   C16-   C17-   O12
  1535  1531  1538  1539   9   0.00   0.47279   3 ;    H24-   C16-   O11-   H27
  1536  1532  1529  1542   9   0.00   0.00000   0 ;    H25-   C17-   C14-   O13
  1536  1532  1529  1542   9   0.00   1.04600   1 ;    H25-   C17-   C14-   O13
  1536  1532  1529  1548   9   0.00   0.00000   0 ;    H25-   C17-   C14-   O15
  1536  1532  1529  1548   9   0.00   1.04600   1 ;    H25-   C17-   C14-   O15
  1536  1532  1531  1538   9   0.00   0.00000   0 ;    H25-   C17-   C16-   O11
  1536  1532  1531  1538   9   0.00   1.04600   1 ;    H25-   C17-   C16-   O11
  1536  1532  1540  1541   9   0.00   0.47279   3 ;    H25-   C17-   O12-   H28
  1537  1530  1543  1544   9   0.00   0.65084   3 ;    H26-   C15-   C18-   H29
  1537  1530  1543  1545   9   0.00   0.65084   3 ;    H26-   C15-   C18-   H30
  1537  1530  1543  1546   9   0.00   0.00000   0 ;    H26-   C15-   C18-   O14
  1537  1530  1543  1546   9   0.00   1.04600   1 ;    H26-   C15-   C18-   O14
  1538  1531  1532  1540   9   0.00   3.76560   3 ;    O11-   C16-   C17-   O12
  1538  1531  1532  1540   9   0.00   4.72792   2 ;    O11-   C16-   C17-   O12
  1540  1532  1529  1542   9   0.00   0.00000   0 ;    O12-   C17-   C14-   O13
  1540  1532  1529  1542   9   0.00   4.22584   3 ;    O12-   C17-   C14-   O13
  1540  1532  1529  1542   9   180.00   0.08368   1 ;    O12-   C17-   C14-   O13
  1540  1532  1529  1548   9   0.00   0.00000   0 ;    O12-   C17-   C14-   O15
  1540  1532  1529  1548   9   0.00   4.22584   3 ;    O12-   C17-   C14-   O15
  1540  1532  1529  1548   9   180.00   0.08368   1 ;    O12-   C17-   C14-   O15
  1542  1529  1548  1549   9   0.00   5.18816   2 ;    O13-   C14-   O15-   C19
  1542  1529  1548  1549   9   180.00   0.00000   3 ;    O13-   C14-   O15-   C19
  1542  1529  1548  1549   9   180.00   4.05848   1 ;    O13-   C14-   O15-   C19
  1542  1530  1543  1544   9   0.00   0.00000   0 ;    O13-   C15-   C18-   H29
  1542  1530  1543  1544   9   0.00   1.04600   1 ;    O13-   C15-   C18-   H29
  1542  1530  1543  1545   9   0.00   0.00000   0 ;    O13-   C15-   C18-   H30
  1542  1530  1543  1545   9   0.00   1.04600   1 ;    O13-   C15-   C18-   H30
  1542  1530  1543  1546   9   0.00   0.00000   0 ;    O13-   C15-   C18-   O14
  1542  1530  1543  1546   9   0.00   4.22584   3 ;    O13-   C15-   C18-   O14
  1542  1530  1543  1546   9   180.00   0.08368   1 ;    O13-   C15-   C18-   O14
  1544  1543  1546  1547   9   0.00   0.47279   3 ;    H29-   C18-   O14-   H31
  1545  1543  1546  1547   9   0.00   0.47279   3 ;    H30-   C18-   O14-   H31
  1548  1549  1551  1550   9   0.00   0.65084   3 ;    O15-   C19-   C21-   C20
  1548  1549  1551  1554   9   0.00   0.00000   0 ;    O15-   C19-   C21-   H32
  1548  1549  1551  1554   9   0.00   1.04600   1 ;    O15-   C19-   C21-   H32
  1548  1549  1551  1567   9   0.00   0.00000   0 ;    O15-   C19-   C21-   O19
  1548  1549  1551  1567   9   0.00   4.22584   3 ;    O15-   C19-   C21-   O19
  1548  1549  1551  1567   9   180.00   0.08368   1 ;    O15-   C19-   C21-   O19
  1548  1549  1552  1556   9   0.00   0.00000   0 ;    O15-   C19-   C22-   H34
  1548  1549  1552  1556   9   0.00   1.04600   1 ;    O15-   C19-   C22-   H34
  1548  1549  1552  1559   9   0.00   0.00000   0 ;    O15-   C19-   C22-   O16
  1548  1549  1552  1559   9   180.00   0.00000   2 ;    O15-   C19-   C22-   O16
  1548  1549  1552  1559   9   180.00   0.71128   1 ;    O15-   C19-   C22-   O16
  1548  1549  1552  1560   9   0.00   0.65084   3 ;    O15-   C19-   C22-   C24
  1549  1551  1550  1553   9   0.00   0.46024   1 ;    C19-   C21-   C20-   C23
  1549  1551  1550  1553   9   0.00   0.54392   3 ;    C19-   C21-   C20-   C23
  1549  1551  1550  1553   9   180.00   1.21336   2 ;    C19-   C21-   C20-   C23
  1549  1551  1550  1555   9   0.00   0.65084   3 ;    C19-   C21-   C20-   H33
  1549  1551  1550  1565   9   0.00   0.87864   3 ;    C19-   C21-   C20-   O18
  1549  1551  1567  1568   9   0.00   0.00000   0 ;    C19-   C21-   O19-   H41
  1549  1552  1559  1553   9   0.00   0.00000   0 ;    C19-   C22-   O16-   C23
  1549  1552  1559  1553   9   0.00   0.66944   2 ;    C19-   C22-   O16-   C23
  1549  1552  1559  1553   9   0.00   1.00416   3 ;    C19-   C22-   O16-   C23
  1549  1552  1560  1561   9   0.00   0.65084   3 ;    C19-   C22-   C24-   H37
  1549  1552  1560  1562   9   0.00   0.65084   3 ;    C19-   C22-   C24-   H38
  1549  1552  1560  1563   9   0.00   0.87864   3 ;    C19-   C22-   C24-   O17
  1550  1551  1549  1552   9   0.00   0.46024   1 ;    C20-   C21-   C19-   C22
  1550  1551  1549  1552   9   0.00   0.54392   3 ;    C20-   C21-   C19-   C22
  1550  1551  1549  1552   9   180.00   1.21336   2 ;    C20-   C21-   C19-   C22
  1550  1551  1549  1558   9   0.00   0.65084   3 ;    C20-   C21-   C19-   H36
  1550  1551  1567  1568   9   0.00   0.00000   0 ;    C20-   C21-   O19-   H41
  1550  1553  1559  1552   9   0.00   0.00000   0 ;    C20-   C23-   O16-   C22
  1550  1553  1559  1552   9   0.00   0.66944   2 ;    C20-   C23-   O16-   C22
  1550  1553  1559  1552   9   0.00   1.00416   3 ;    C20-   C23-   O16-   C22
  1550  1553  1569  1570   9   0.00   0.00000   0 ;    C20-   C23-   O20-   C25
  1550  1553  1569  1570   9   0.00   0.66944   2 ;    C20-   C23-   O20-   C25
  1550  1553  1569  1570   9   0.00   1.00416   3 ;    C20-   C23-   O20-   C25
  1551  1549  1552  1556   9   0.00   0.65084   3 ;    C21-   C19-   C22-   H34
  1551  1549  1552  1559   9   0.00   0.65084   3 ;    C21-   C19-   C22-   O16
  1551  1549  1552  1560   9   0.00   0.46024   1 ;    C21-   C19-   C22-   C24
  1551  1549  1552  1560   9   0.00   0.54392   3 ;    C21-   C19-   C22-   C24
  1551  1549  1552  1560   9   180.00   1.21336   2 ;    C21-   C19-   C22-   C24
  1551  1550  1553  1557   9   0.00   0.65084   3 ;    C21-   C20-   C23-   H35
  1551  1550  1553  1559   9   0.00   0.65084   3 ;    C21-   C20-   C23-   O16
  1551  1550  1553  1569   9   0.00   0.65084   3 ;    C21-   C20-   C23-   O20
  1551  1550  1565  1566   9   0.00   0.00000   0 ;    C21-   C20-   O18-   H40
  1552  1549  1551  1554   9   0.00   0.65084   3 ;    C22-   C19-   C21-   H32
  1552  1549  1551  1567   9   0.00   0.87864   3 ;    C22-   C19-   C21-   O19
  1552  1559  1553  1557   9   0.00   1.60387   3 ;    C22-   O16-   C23-   H35
  1552  1559  1553  1569   9   0.00   5.18816   2 ;    C22-   O16-   C23-   O20
  1552  1559  1553  1569   9   180.00   0.00000   3 ;    C22-   O16-   C23-   O20
  1552  1559  1553  1569   9   180.00   4.05848   1 ;    C22-   O16-   C23-   O20
  1552  1560  1563  1564   9   0.00   0.00000   0 ;    C22-   C24-   O17-   H39
  1553  1550  1551  1554   9   0.00   0.65084   3 ;    C23-   C20-   C21-   H32
  1553  1550  1551  1567   9   0.00   0.87864   3 ;    C23-   C20-   C21-   O19
  1553  1550  1565  1566   9   0.00   0.00000   0 ;    C23-   C20-   O18-   H40
  1553  1559  1552  1556   9   0.00   1.41001   3 ;    C23-   O16-   C22-   H34
  1553  1559  1552  1560   9   0.00   0.00000   0 ;    C23-   O16-   C22-   C24
  1553  1559  1552  1560   9   0.00   0.66944   2 ;    C23-   O16-   C22-   C24
  1553  1559  1552  1560   9   0.00   1.00416   3 ;    C23-   O16-   C22-   C24
  1553  1569  1570  1572   9   0.00   0.00000   0 ;    C23-   O20-   C25-   C27
  1553  1569  1570  1572   9   0.00   0.66944   2 ;    C23-   O20-   C25-   C27
  1553  1569  1570  1572   9   0.00   1.00416   3 ;    C23-   O20-   C25-   C27
  1553  1569  1570  1573   9   0.00   0.00000   0 ;    C23-   O20-   C25-   C28
  1553  1569  1570  1573   9   0.00   0.66944   2 ;    C23-   O20-   C25-   C28
  1553  1569  1570  1573   9   0.00   1.00416   3 ;    C23-   O20-   C25-   C28
  1553  1569  1570  1576   9   0.00   1.41001   3 ;    C23-   O20-   C25-   H43
  1554  1551  1549  1558   9   0.00   0.65084   3 ;    H32-   C21-   C19-   H36
  1554  1551  1550  1555   9   0.00   0.65084   3 ;    H32-   C21-   C20-   H33
  1554  1551  1550  1565   9   0.00   0.00000   0 ;    H32-   C21-   C20-   O18
  1554  1551  1550  1565   9   0.00   1.04600   1 ;    H32-   C21-   C20-   O18
  1554  1551  1567  1568   9   0.00   0.47279   3 ;    H32-   C21-   O19-   H41
  1555  1550  1551  1567   9   0.00   0.00000   0 ;    H33-   C20-   C21-   O19
  1555  1550  1551  1567   9   0.00   1.04600   1 ;    H33-   C20-   C21-   O19
  1555  1550  1553  1557   9   0.00   0.65084   3 ;    H33-   C20-   C23-   H35
  1555  1550  1553  1559   9   0.00   0.00000   0 ;    H33-   C20-   C23-   O16
  1555  1550  1553  1559   9   0.00   1.04600   1 ;    H33-   C20-   C23-   O16
  1555  1550  1553  1569   9   0.00   0.00000   0 ;    H33-   C20-   C23-   O20
  1555  1550  1553  1569   9   0.00   1.04600   1 ;    H33-   C20-   C23-   O20
  1555  1550  1565  1566   9   0.00   0.47279   3 ;    H33-   C20-   O18-   H40
  1556  1552  1549  1558   9   0.00   0.65084   3 ;    H34-   C22-   C19-   H36
  1556  1552  1560  1561   9   0.00   0.65084   3 ;    H34-   C22-   C24-   H37
  1556  1552  1560  1562   9   0.00   0.65084   3 ;    H34-   C22-   C24-   H38
  1556  1552  1560  1563   9   0.00   0.00000   0 ;    H34-   C22-   C24-   O17
  1556  1552  1560  1563   9   0.00   1.04600   1 ;    H34-   C22-   C24-   O17
  1557  1553  1550  1565   9   0.00   0.65084   3 ;    H35-   C23-   C20-   O18
  1557  1553  1569  1570   9   0.00   1.60387   3 ;    H35-   C23-   O20-   C25
  1558  1549  1551  1567   9   0.00   0.00000   0 ;    H36-   C19-   C21-   O19
  1558  1549  1551  1567   9   0.00   1.04600   1 ;    H36-   C19-   C21-   O19
  1558  1549  1552  1559   9   0.00   0.00000   0 ;    H36-   C19-   C22-   O16
  1558  1549  1552  1559   9   0.00   1.04600   1 ;    H36-   C19-   C22-   O16
  1558  1549  1552  1560   9   0.00   0.65084   3 ;    H36-   C19-   C22-   C24
  1559  1552  1560  1561   9   0.00   0.00000   0 ;    O16-   C22-   C24-   H37
  1559  1552  1560  1561   9   0.00   1.04600   1 ;    O16-   C22-   C24-   H37
  1559  1552  1560  1562   9   0.00   0.00000   0 ;    O16-   C22-   C24-   H38
  1559  1552  1560  1562   9   0.00   1.04600   1 ;    O16-   C22-   C24-   H38
  1559  1552  1560  1563   9   0.00   0.00000   0 ;    O16-   C22-   C24-   O17
  1559  1552  1560  1563   9   0.00   4.22584   3 ;    O16-   C22-   C24-   O17
  1559  1552  1560  1563   9   180.00   0.08368   1 ;    O16-   C22-   C24-   O17
  1559  1553  1550  1565   9   0.00   0.00000   0 ;    O16-   C23-   C20-   O18
  1559  1553  1550  1565   9   0.00   4.22584   3 ;    O16-   C23-   C20-   O18
  1559  1553  1550  1565   9   180.00   0.08368   1 ;    O16-   C23-   C20-   O18
  1559  1553  1569  1570   9   0.00   5.18816   2 ;    O16-   C23-   O20-   C25
  1559  1553  1569  1570   9   180.00   0.00000   3 ;    O16-   C23-   O20-   C25
  1559  1553  1569  1570   9   180.00   4.05848   1 ;    O16-   C23-   O20-   C25
  1561  1560  1563  1564   9   0.00   0.47279   3 ;    H37-   C24-   O17-   H39
  1562  1560  1563  1564   9   0.00   0.47279   3 ;    H38-   C24-   O17-   H39
  1565  1550  1551  1567   9   0.00   3.76560   3 ;    O18-   C20-   C21-   O19
  1565  1550  1551  1567   9   0.00   4.72792   2 ;    O18-   C20-   C21-   O19
  1565  1550  1553  1569   9   0.00   0.00000   0 ;    O18-   C20-   C23-   O20
  1565  1550  1553  1569   9   0.00   4.22584   3 ;    O18-   C20-   C23-   O20
  1565  1550  1553  1569   9   180.00   0.08368   1 ;    O18-   C20-   C23-   O20
  1569  1570  1572  1579   9   0.00   0.00000   0 ;    O20-   C25-   C27-   H46
  1569  1570  1572  1579   9   0.00   1.04600   1 ;    O20-   C25-   C27-   H46
  1569  1570  1572  1584   9   0.00   0.00000   0 ;    O20-   C25-   C27-   O23
  1569  1570  1572  1584   9   180.00   0.00000   2 ;    O20-   C25-   C27-   O23
  1569  1570  1572  1584   9   180.00   0.71128   1 ;    O20-   C25-   C27-   O23
  1569  1570  1572  1585   9   0.00   0.65084   3 ;    O20-   C25-   C27-   C30
  1569  1570  1573  1574   9   0.00   0.65084   3 ;    O20-   C25-   C28-   C29
  1569  1570  1573  1577   9   0.00   0.00000   0 ;    O20-   C25-   C28-   H44
  1569  1570  1573  1577   9   0.00   1.04600   1 ;    O20-   C25-   C28-   H44
  1569  1570  1573  1580   9   0.00   0.00000   0 ;    O20-   C25-   C28-   O21
  1569  1570  1573  1580   9   0.00   4.22584   3 ;    O20-   C25-   C28-   O21
  1569  1570  1573  1580   9   180.00   0.08368   1 ;    O20-   C25-   C28-   O21
  1570  1572  1584  1571   9   0.00   0.00000   0 ;    C25-   C27-   O23-   C26
  1570  1572  1584  1571   9   0.00   0.66944   2 ;    C25-   C27-   O23-   C26
  1570  1572  1584  1571   9   0.00   1.00416   3 ;    C25-   C27-   O23-   C26
  1570  1572  1585  1586   9   0.00   0.65084   3 ;    C25-   C27-   C30-   H49
  1570  1572  1585  1587   9   0.00   0.65084   3 ;    C25-   C27-   C30-   H50
  1570  1572  1585  1588   9   0.00   0.87864   3 ;    C25-   C27-   C30-   O24
  1570  1573  1574  1571   9   0.00   0.46024   1 ;    C25-   C28-   C29-   C26
  1570  1573  1574  1571   9   0.00   0.54392   3 ;    C25-   C28-   C29-   C26
  1570  1573  1574  1571   9   180.00   1.21336   2 ;    C25-   C28-   C29-   C26
  1570  1573  1574  1578   9   0.00   0.65084   3 ;    C25-   C28-   C29-   H45
  1570  1573  1574  1582   9   0.00   0.87864   3 ;    C25-   C28-   C29-   O22
  1570  1573  1580  1581   9   0.00   0.00000   0 ;    C25-   C28-   O21-   H47
  1571  1574  1573  1577   9   0.00   0.65084   3 ;    C26-   C29-   C28-   H44
  1571  1574  1573  1580   9   0.00   0.87864   3 ;    C26-   C29-   C28-   O21
  1571  1574  1582  1583   9   0.00   0.00000   0 ;    C26-   C29-   O22-   H48
  1571  1584  1572  1579   9   0.00   1.41001   3 ;    C26-   O23-   C27-   H46
  1571  1584  1572  1585   9   0.00   0.00000   0 ;    C26-   O23-   C27-   C30
  1571  1584  1572  1585   9   0.00   0.66944   2 ;    C26-   O23-   C27-   C30
  1571  1584  1572  1585   9   0.00   1.00416   3 ;    C26-   O23-   C27-   C30
  1571  1590  1591  1593   9   0.00   0.00000   0 ;    C26-   O25-   C31-   C33
  1571  1590  1591  1593   9   0.00   0.66944   2 ;    C26-   O25-   C31-   C33
  1571  1590  1591  1593   9   0.00   1.00416   3 ;    C26-   O25-   C31-   C33
  1571  1590  1591  1594   9   0.00   0.00000   0 ;    C26-   O25-   C31-   C34
  1571  1590  1591  1594   9   0.00   0.66944   2 ;    C26-   O25-   C31-   C34
  1571  1590  1591  1594   9   0.00   1.00416   3 ;    C26-   O25-   C31-   C34
  1571  1590  1591  1600   9   0.00   1.41001   3 ;    C26-   O25-   C31-   H56
  1572  1570  1573  1574   9   0.00   0.46024   1 ;    C27-   C25-   C28-   C29
  1572  1570  1573  1574   9   0.00   0.54392   3 ;    C27-   C25-   C28-   C29
  1572  1570  1573  1574   9   180.00   1.21336   2 ;    C27-   C25-   C28-   C29
  1572  1570  1573  1577   9   0.00   0.65084   3 ;    C27-   C25-   C28-   H44
  1572  1570  1573  1580   9   0.00   0.87864   3 ;    C27-   C25-   C28-   O21
  1572  1584  1571  1574   9   0.00   0.00000   0 ;    C27-   O23-   C26-   C29
  1572  1584  1571  1574   9   0.00   0.66944   2 ;    C27-   O23-   C26-   C29
  1572  1584  1571  1574   9   0.00   1.00416   3 ;    C27-   O23-   C26-   C29
  1572  1584  1571  1575   9   0.00   1.60387   3 ;    C27-   O23-   C26-   H42
  1572  1584  1571  1590   9   0.00   5.18816   2 ;    C27-   O23-   C26-   O25
  1572  1584  1571  1590   9   180.00   0.00000   3 ;    C27-   O23-   C26-   O25
  1572  1584  1571  1590   9   180.00   4.05848   1 ;    C27-   O23-   C26-   O25
  1572  1585  1588  1589   9   0.00   0.00000   0 ;    C27-   C30-   O24-   H51
  1573  1570  1572  1579   9   0.00   0.65084   3 ;    C28-   C25-   C27-   H46
  1573  1570  1572  1584   9   0.00   0.65084   3 ;    C28-   C25-   C27-   O23
  1573  1570  1572  1585   9   0.00   0.46024   1 ;    C28-   C25-   C27-   C30
  1573  1570  1572  1585   9   0.00   0.54392   3 ;    C28-   C25-   C27-   C30
  1573  1570  1572  1585   9   180.00   1.21336   2 ;    C28-   C25-   C27-   C30
  1573  1574  1571  1575   9   0.00   0.65084   3 ;    C28-   C29-   C26-   H42
  1573  1574  1571  1584   9   0.00   0.65084   3 ;    C28-   C29-   C26-   O23
  1573  1574  1571  1590   9   0.00   0.65084   3 ;    C28-   C29-   C26-   O25
  1573  1574  1582  1583   9   0.00   0.00000   0 ;    C28-   C29-   O22-   H48
  1574  1571  1590  1591   9   0.00   0.00000   0 ;    C29-   C26-   O25-   C31
  1574  1571  1590  1591   9   0.00   0.66944   2 ;    C29-   C26-   O25-   C31
  1574  1571  1590  1591   9   0.00   1.00416   3 ;    C29-   C26-   O25-   C31
  1574  1573  1570  1576   9   0.00   0.65084   3 ;    C29-   C28-   C25-   H43
  1574  1573  1580  1581   9   0.00   0.00000   0 ;    C29-   C28-   O21-   H47
  1575  1571  1574  1578   9   0.00   0.65084   3 ;    H42-   C26-   C29-   H45
  1575  1571  1574  1582   9   0.00   0.65084   3 ;    H42-   C26-   C29-   O22
  1575  1571  1590  1591   9   0.00   1.60387   3 ;    H42-   C26-   O25-   C31
  1576  1570  1572  1579   9   0.00   0.65084   3 ;    H43-   C25-   C27-   H46
  1576  1570  1572  1584   9   0.00   0.00000   0 ;    H43-   C25-   C27-   O23
  1576  1570  1572  1584   9   0.00   1.04600   1 ;    H43-   C25-   C27-   O23
  1576  1570  1572  1585   9   0.00   0.65084   3 ;    H43-   C25-   C27-   C30
  1576  1570  1573  1577   9   0.00   0.65084   3 ;    H43-   C25-   C28-   H44
  1576  1570  1573  1580   9   0.00   0.00000   0 ;    H43-   C25-   C28-   O21
  1576  1570  1573  1580   9   0.00   1.04600   1 ;    H43-   C25-   C28-   O21
  1577  1573  1574  1578   9   0.00   0.65084   3 ;    H44-   C28-   C29-   H45
  1577  1573  1574  1582   9   0.00   0.00000   0 ;    H44-   C28-   C29-   O22
  1577  1573  1574  1582   9   0.00   1.04600   1 ;    H44-   C28-   C29-   O22
  1577  1573  1580  1581   9   0.00   0.47279   3 ;    H44-   C28-   O21-   H47
  1578  1574  1571  1584   9   0.00   0.00000   0 ;    H45-   C29-   C26-   O23
  1578  1574  1571  1584   9   0.00   1.04600   1 ;    H45-   C29-   C26-   O23
  1578  1574  1571  1590   9   0.00   0.00000   0 ;    H45-   C29-   C26-   O25
  1578  1574  1571  1590   9   0.00   1.04600   1 ;    H45-   C29-   C26-   O25
  1578  1574  1573  1580   9   0.00   0.00000   0 ;    H45-   C29-   C28-   O21
  1578  1574  1573  1580   9   0.00   1.04600   1 ;    H45-   C29-   C28-   O21
  1578  1574  1582  1583   9   0.00   0.47279   3 ;    H45-   C29-   O22-   H48
  1579  1572  1585  1586   9   0.00   0.65084   3 ;    H46-   C27-   C30-   H49
  1579  1572  1585  1587   9   0.00   0.65084   3 ;    H46-   C27-   C30-   H50
  1579  1572  1585  1588   9   0.00   0.00000   0 ;    H46-   C27-   C30-   O24
  1579  1572  1585  1588   9   0.00   1.04600   1 ;    H46-   C27-   C30-   O24
  1580  1573  1574  1582   9   0.00   3.76560   3 ;    O21-   C28-   C29-   O22
  1580  1573  1574  1582   9   0.00   4.72792   2 ;    O21-   C28-   C29-   O22
  1582  1574  1571  1584   9   0.00   0.00000   0 ;    O22-   C29-   C26-   O23
  1582  1574  1571  1584   9   0.00   4.22584   3 ;    O22-   C29-   C26-   O23
  1582  1574  1571  1584   9   180.00   0.08368   1 ;    O22-   C29-   C26-   O23
  1582  1574  1571  1590   9   0.00   0.00000   0 ;    O22-   C29-   C26-   O25
  1582  1574  1571  1590   9   0.00   4.22584   3 ;    O22-   C29-   C26-   O25
  1582  1574  1571  1590   9   180.00   0.08368   1 ;    O22-   C29-   C26-   O25
  1584  1571  1590  1591   9   0.00   5.18816   2 ;    O23-   C26-   O25-   C31
  1584  1571  1590  1591   9   180.00   0.00000   3 ;    O23-   C26-   O25-   C31
  1584  1571  1590  1591   9   180.00   4.05848   1 ;    O23-   C26-   O25-   C31
  1584  1572  1585  1586   9   0.00   0.00000   0 ;    O23-   C27-   C30-   H49
  1584  1572  1585  1586   9   0.00   1.04600   1 ;    O23-   C27-   C30-   H49
  1584  1572  1585  1587   9   0.00   0.00000   0 ;    O23-   C27-   C30-   H50
  1584  1572  1585  1587   9   0.00   1.04600   1 ;    O23-   C27-   C30-   H50
  1584  1572  1585  1588   9   0.00   0.00000   0 ;    O23-   C27-   C30-   O24
  1584  1572  1585  1588   9   0.00   4.22584   3 ;    O23-   C27-   C30-   O24
  1584  1572  1585  1588   9   180.00   0.08368   1 ;    O23-   C27-   C30-   O24
  1586  1585  1588  1589   9   0.00   0.47279   3 ;    H49-   C30-   O24-   H51
  1587  1585  1588  1589   9   0.00   0.47279   3 ;    H50-   C30-   O24-   H51
  1590  1591  1593  1592   9   0.00   0.65084   3 ;    O25-   C31-   C33-   C32
  1590  1591  1593  1596   9   0.00   0.00000   0 ;    O25-   C31-   C33-   H52
  1590  1591  1593  1596   9   0.00   1.04600   1 ;    O25-   C31-   C33-   H52
  1590  1591  1593  1609   9   0.00   0.00000   0 ;    O25-   C31-   C33-   O29
  1590  1591  1593  1609   9   0.00   4.22584   3 ;    O25-   C31-   C33-   O29
  1590  1591  1593  1609   9   180.00   0.08368   1 ;    O25-   C31-   C33-   O29
  1590  1591  1594  1598   9   0.00   0.00000   0 ;    O25-   C31-   C34-   H54
  1590  1591  1594  1598   9   0.00   1.04600   1 ;    O25-   C31-   C34-   H54
  1590  1591  1594  1601   9   0.00   0.00000   0 ;    O25-   C31-   C34-   O26
  1590  1591  1594  1601   9   180.00   0.00000   2 ;    O25-   C31-   C34-   O26
  1590  1591  1594  1601   9   180.00   0.71128   1 ;    O25-   C31-   C34-   O26
  1590  1591  1594  1602   9   0.00   0.65084   3 ;    O25-   C31-   C34-   C36
  1591  1593  1592  1595   9   0.00   0.46024   1 ;    C31-   C33-   C32-   C35
  1591  1593  1592  1595   9   0.00   0.54392   3 ;    C31-   C33-   C32-   C35
  1591  1593  1592  1595   9   180.00   1.21336   2 ;    C31-   C33-   C32-   C35
  1591  1593  1592  1597   9   0.00   0.65084   3 ;    C31-   C33-   C32-   H53
  1591  1593  1592  1607   9   0.00   0.87864   3 ;    C31-   C33-   C32-   O28
  1591  1593  1609  1610   9   0.00   0.00000   0 ;    C31-   C33-   O29-   H61
  1591  1594  1601  1595   9   0.00   0.00000   0 ;    C31-   C34-   O26-   C35
  1591  1594  1601  1595   9   0.00   0.66944   2 ;    C31-   C34-   O26-   C35
  1591  1594  1601  1595   9   0.00   1.00416   3 ;    C31-   C34-   O26-   C35
  1591  1594  1602  1603   9   0.00   0.65084   3 ;    C31-   C34-   C36-   H57
  1591  1594  1602  1604   9   0.00   0.65084   3 ;    C31-   C34-   C36-   H58
  1591  1594  1602  1605   9   0.00   0.87864   3 ;    C31-   C34-   C36-   O27
  1592  1593  1591  1594   9   0.00   0.46024   1 ;    C32-   C33-   C31-   C34
  1592  1593  1591  1594   9   0.00   0.54392   3 ;    C32-   C33-   C31-   C34
  1592  1593  1591  1594   9   180.00   1.21336   2 ;    C32-   C33-   C31-   C34
  1592  1593  1591  1600   9   0.00   0.65084   3 ;    C32-   C33-   C31-   H56
  1592  1593  1609  1610   9   0.00   0.00000   0 ;    C32-   C33-   O29-   H61
  1592  1595  1601  1594   9   0.00   0.00000   0 ;    C32-   C35-   O26-   C34
  1592  1595  1601  1594   9   0.00   0.66944   2 ;    C32-   C35-   O26-   C34
  1592  1595  1601  1594   9   0.00   1.00416   3 ;    C32-   C35-   O26-   C34
  1592  1595  1611  1612   9   0.00   0.00000   0 ;    C32-   C35-   O30-   C37
  1592  1595  1611  1612   9   0.00   0.66944   2 ;    C32-   C35-   O30-   C37
  1592  1595  1611  1612   9   0.00   1.00416   3 ;    C32-   C35-   O30-   C37
  1593  1591  1594  1598   9   0.00   0.65084   3 ;    C33-   C31-   C34-   H54
  1593  1591  1594  1601   9   0.00   0.65084   3 ;    C33-   C31-   C34-   O26
  1593  1591  1594  1602   9   0.00   0.46024   1 ;    C33-   C31-   C34-   C36
  1593  1591  1594  1602   9   0.00   0.54392   3 ;    C33-   C31-   C34-   C36
  1593  1591  1594  1602   9   180.00   1.21336   2 ;    C33-   C31-   C34-   C36
  1593  1592  1595  1599   9   0.00   0.65084   3 ;    C33-   C32-   C35-   H55
  1593  1592  1595  1601   9   0.00   0.65084   3 ;    C33-   C32-   C35-   O26
  1593  1592  1595  1611   9   0.00   0.65084   3 ;    C33-   C32-   C35-   O30
  1593  1592  1607  1608   9   0.00   0.00000   0 ;    C33-   C32-   O28-   H60
  1594  1591  1593  1596   9   0.00   0.65084   3 ;    C34-   C31-   C33-   H52
  1594  1591  1593  1609   9   0.00   0.87864   3 ;    C34-   C31-   C33-   O29
  1594  1601  1595  1599   9   0.00   1.60387   3 ;    C34-   O26-   C35-   H55
  1594  1601  1595  1611   9   0.00   5.18816   2 ;    C34-   O26-   C35-   O30
  1594  1601  1595  1611   9   180.00   0.00000   3 ;    C34-   O26-   C35-   O30
  1594  1601  1595  1611   9   180.00   4.05848   1 ;    C34-   O26-   C35-   O30
  1594  1602  1605  1606   9   0.00   0.00000   0 ;    C34-   C36-   O27-   H59
  1595  1592  1593  1596   9   0.00   0.65084   3 ;    C35-   C32-   C33-   H52
  1595  1592  1593  1609   9   0.00   0.87864   3 ;    C35-   C32-   C33-   O29
  1595  1592  1607  1608   9   0.00   0.00000   0 ;    C35-   C32-   O28-   H60
  1595  1601  1594  1598   9   0.00   1.41001   3 ;    C35-   O26-   C34-   H54
  1595  1601  1594  1602   9   0.00   0.00000   0 ;    C35-   O26-   C34-   C36
  1595  1601  1594  1602   9   0.00   0.66944   2 ;    C35-   O26-   C34-   C36
  1595  1601  1594  1602   9   0.00   1.00416   3 ;    C35-   O26-   C34-   C36
  1595  1611  1612  1614   9   0.00   0.00000   0 ;    C35-   O30-   C37-   C39
  1595  1611  1612  1614   9   0.00   0.66944   2 ;    C35-   O30-   C37-   C39
  1595  1611  1612  1614   9   0.00   1.00416   3 ;    C35-   O30-   C37-   C39
  1595  1611  1612  1615   9   0.00   0.00000   0 ;    C35-   O30-   C37-   C40
  1595  1611  1612  1615   9   0.00   0.66944   2 ;    C35-   O30-   C37-   C40
  1595  1611  1612  1615   9   0.00   1.00416   3 ;    C35-   O30-   C37-   C40
  1595  1611  1612  1618   9   0.00   1.41001   3 ;    C35-   O30-   C37-   H63
  1596  1593  1591  1600   9   0.00   0.65084   3 ;    H52-   C33-   C31-   H56
  1596  1593  1592  1597   9   0.00   0.65084   3 ;    H52-   C33-   C32-   H53
  1596  1593  1592  1607   9   0.00   0.00000   0 ;    H52-   C33-   C32-   O28
  1596  1593  1592  1607   9   0.00   1.04600   1 ;    H52-   C33-   C32-   O28
  1596  1593  1609  1610   9   0.00   0.47279   3 ;    H52-   C33-   O29-   H61
  1597  1592  1593  1609   9   0.00   0.00000   0 ;    H53-   C32-   C33-   O29
  1597  1592  1593  1609   9   0.00   1.04600   1 ;    H53-   C32-   C33-   O29
  1597  1592  1595  1599   9   0.00   0.65084   3 ;    H53-   C32-   C35-   H55
  1597  1592  1595  1601   9   0.00   0.00000   0 ;    H53-   C32-   C35-   O26
  1597  1592  1595  1601   9   0.00   1.04600   1 ;    H53-   C32-   C35-   O26
  1597  1592  1595  1611   9   0.00   0.00000   0 ;    H53-   C32-   C35-   O30
  1597  1592  1595  1611   9   0.00   1.04600   1 ;    H53-   C32-   C35-   O30
  1597  1592  1607  1608   9   0.00   0.47279   3 ;    H53-   C32-   O28-   H60
  1598  1594  1591  1600   9   0.00   0.65084   3 ;    H54-   C34-   C31-   H56
  1598  1594  1602  1603   9   0.00   0.65084   3 ;    H54-   C34-   C36-   H57
  1598  1594  1602  1604   9   0.00   0.65084   3 ;    H54-   C34-   C36-   H58
  1598  1594  1602  1605   9   0.00   0.00000   0 ;    H54-   C34-   C36-   O27
  1598  1594  1602  1605   9   0.00   1.04600   1 ;    H54-   C34-   C36-   O27
  1599  1595  1592  1607   9   0.00   0.65084   3 ;    H55-   C35-   C32-   O28
  1599  1595  1611  1612   9   0.00   1.60387   3 ;    H55-   C35-   O30-   C37
  1600  1591  1593  1609   9   0.00   0.00000   0 ;    H56-   C31-   C33-   O29
  1600  1591  1593  1609   9   0.00   1.04600   1 ;    H56-   C31-   C33-   O29
  1600  1591  1594  1601   9   0.00   0.00000   0 ;    H56-   C31-   C34-   O26
  1600  1591  1594  1601   9   0.00   1.04600   1 ;    H56-   C31-   C34-   O26
  1600  1591  1594  1602   9   0.00   0.65084   3 ;    H56-   C31-   C34-   C36
  1601  1594  1602  1603   9   0.00   0.00000   0 ;    O26-   C34-   C36-   H57
  1601  1594  1602  1603   9   0.00   1.04600   1 ;    O26-   C34-   C36-   H57
  1601  1594  1602  1604   9   0.00   0.00000   0 ;    O26-   C34-   C36-   H58
  1601  1594  1602  1604   9   0.00   1.04600   1 ;    O26-   C34-   C36-   H58
  1601  1594  1602  1605   9   0.00   0.00000   0 ;    O26-   C34-   C36-   O27
  1601  1594  1602  1605   9   0.00   4.22584   3 ;    O26-   C34-   C36-   O27
  1601  1594  1602  1605   9   180.00   0.08368   1 ;    O26-   C34-   C36-   O27
  1601  1595  1592  1607   9   0.00   0.00000   0 ;    O26-   C35-   C32-   O28
  1601  1595  1592  1607   9   0.00   4.22584   3 ;    O26-   C35-   C32-   O28
  1601  1595  1592  1607   9   180.00   0.08368   1 ;    O26-   C35-   C32-   O28
  1601  1595  1611  1612   9   0.00   5.18816   2 ;    O26-   C35-   O30-   C37
  1601  1595  1611  1612   9   180.00   0.00000   3 ;    O26-   C35-   O30-   C37
  1601  1595  1611  1612   9   180.00   4.05848   1 ;    O26-   C35-   O30-   C37
  1603  1602  1605  1606   9   0.00   0.47279   3 ;    H57-   C36-   O27-   H59
  1604  1602  1605  1606   9   0.00   0.47279   3 ;    H58-   C36-   O27-   H59
  1607  1592  1593  1609   9   0.00   3.76560   3 ;    O28-   C32-   C33-   O29
  1607  1592  1593  1609   9   0.00   4.72792   2 ;    O28-   C32-   C33-   O29
  1607  1592  1595  1611   9   0.00   0.00000   0 ;    O28-   C32-   C35-   O30
  1607  1592  1595  1611   9   0.00   4.22584   3 ;    O28-   C32-   C35-   O30
  1607  1592  1595  1611   9   180.00   0.08368   1 ;    O28-   C32-   C35-   O30
  1611  1612  1614  1621   9   0.00   0.00000   0 ;    O30-   C37-   C39-   H66
  1611  1612  1614  1621   9   0.00   1.04600   1 ;    O30-   C37-   C39-   H66
  1611  1612  1614  1626   9   0.00   0.00000   0 ;    O30-   C37-   C39-   O33
  1611  1612  1614  1626   9   180.00   0.00000   2 ;    O30-   C37-   C39-   O33
  1611  1612  1614  1626   9   180.00   0.71128   1 ;    O30-   C37-   C39-   O33
  1611  1612  1614  1627   9   0.00   0.65084   3 ;    O30-   C37-   C39-   C42
  1611  1612  1615  1616   9   0.00   0.65084   3 ;    O30-   C37-   C40-   C41
  1611  1612  1615  1619   9   0.00   0.00000   0 ;    O30-   C37-   C40-   H64
  1611  1612  1615  1619   9   0.00   1.04600   1 ;    O30-   C37-   C40-   H64
  1611  1612  1615  1622   9   0.00   0.00000   0 ;    O30-   C37-   C40-   O31
  1611  1612  1615  1622   9   0.00   4.22584   3 ;    O30-   C37-   C40-   O31
  1611  1612  1615  1622   9   180.00   0.08368   1 ;    O30-   C37-   C40-   O31
  1612  1614  1626  1613   9   0.00   0.00000   0 ;    C37-   C39-   O33-   C38
  1612  1614  1626  1613   9   0.00   0.66944   2 ;    C37-   C39-   O33-   C38
  1612  1614  1626  1613   9   0.00   1.00416   3 ;    C37-   C39-   O33-   C38
  1612  1614  1627  1628   9   0.00   0.65084   3 ;    C37-   C39-   C42-   H69
  1612  1614  1627  1629   9   0.00   0.65084   3 ;    C37-   C39-   C42-   H70
  1612  1614  1627  1630   9   0.00   0.87864   3 ;    C37-   C39-   C42-   O34
  1612  1615  1616  1613   9   0.00   0.46024   1 ;    C37-   C40-   C41-   C38
  1612  1615  1616  1613   9   0.00   0.54392   3 ;    C37-   C40-   C41-   C38
  1612  1615  1616  1613   9   180.00   1.21336   2 ;    C37-   C40-   C41-   C38
  1612  1615  1616  1620   9   0.00   0.65084   3 ;    C37-   C40-   C41-   H65
  1612  1615  1616  1624   9   0.00   0.87864   3 ;    C37-   C40-   C41-   O32
  1612  1615  1622  1623   9   0.00   0.00000   0 ;    C37-   C40-   O31-   H67
  1613  1616  1615  1619   9   0.00   0.65084   3 ;    C38-   C41-   C40-   H64
  1613  1616  1615  1622   9   0.00   0.87864   3 ;    C38-   C41-   C40-   O31
  1613  1616  1624  1625   9   0.00   0.00000   0 ;    C38-   C41-   O32-   H68
  1613  1626  1614  1621   9   0.00   1.41001   3 ;    C38-   O33-   C39-   H66
  1613  1626  1614  1627   9   0.00   0.00000   0 ;    C38-   O33-   C39-   C42
  1613  1626  1614  1627   9   0.00   0.66944   2 ;    C38-   O33-   C39-   C42
  1613  1626  1614  1627   9   0.00   1.00416   3 ;    C38-   O33-   C39-   C42
  1613  1632  1633  1635   9   0.00   0.00000   0 ;    C38-   O35-   C43-   C45
  1613  1632  1633  1635   9   0.00   0.66944   2 ;    C38-   O35-   C43-   C45
  1613  1632  1633  1635   9   0.00   1.00416   3 ;    C38-   O35-   C43-   C45
  1613  1632  1633  1636   9   0.00   0.00000   0 ;    C38-   O35-   C43-   C46
  1613  1632  1633  1636   9   0.00   0.66944   2 ;    C38-   O35-   C43-   C46
  1613  1632  1633  1636   9   0.00   1.00416   3 ;    C38-   O35-   C43-   C46
  1613  1632  1633  1642   9   0.00   1.41001   3 ;    C38-   O35-   C43-   H76
  1614  1612  1615  1616   9   0.00   0.46024   1 ;    C39-   C37-   C40-   C41
  1614  1612  1615  1616   9   0.00   0.54392   3 ;    C39-   C37-   C40-   C41
  1614  1612  1615  1616   9   180.00   1.21336   2 ;    C39-   C37-   C40-   C41
  1614  1612  1615  1619   9   0.00   0.65084   3 ;    C39-   C37-   C40-   H64
  1614  1612  1615  1622   9   0.00   0.87864   3 ;    C39-   C37-   C40-   O31
  1614  1626  1613  1616   9   0.00   0.00000   0 ;    C39-   O33-   C38-   C41
  1614  1626  1613  1616   9   0.00   0.66944   2 ;    C39-   O33-   C38-   C41
  1614  1626  1613  1616   9   0.00   1.00416   3 ;    C39-   O33-   C38-   C41
  1614  1626  1613  1617   9   0.00   1.60387   3 ;    C39-   O33-   C38-   H62
  1614  1626  1613  1632   9   0.00   5.18816   2 ;    C39-   O33-   C38-   O35
  1614  1626  1613  1632   9   180.00   0.00000   3 ;    C39-   O33-   C38-   O35
  1614  1626  1613  1632   9   180.00   4.05848   1 ;    C39-   O33-   C38-   O35
  1614  1627  1630  1631   9   0.00   0.00000   0 ;    C39-   C42-   O34-   H71
  1615  1612  1614  1621   9   0.00   0.65084   3 ;    C40-   C37-   C39-   H66
  1615  1612  1614  1626   9   0.00   0.65084   3 ;    C40-   C37-   C39-   O33
  1615  1612  1614  1627   9   0.00   0.46024   1 ;    C40-   C37-   C39-   C42
  1615  1612  1614  1627   9   0.00   0.54392   3 ;    C40-   C37-   C39-   C42
  1615  1612  1614  1627   9   180.00   1.21336   2 ;    C40-   C37-   C39-   C42
  1615  1616  1613  1617   9   0.00   0.65084   3 ;    C40-   C41-   C38-   H62
  1615  1616  1613  1626   9   0.00   0.65084   3 ;    C40-   C41-   C38-   O33
  1615  1616  1613  1632   9   0.00   0.65084   3 ;    C40-   C41-   C38-   O35
  1615  1616  1624  1625   9   0.00   0.00000   0 ;    C40-   C41-   O32-   H68
  1616  1613  1632  1633   9   0.00   0.00000   0 ;    C41-   C38-   O35-   C43
  1616  1613  1632  1633   9   0.00   0.66944   2 ;    C41-   C38-   O35-   C43
  1616  1613  1632  1633   9   0.00   1.00416   3 ;    C41-   C38-   O35-   C43
  1616  1615  1612  1618   9   0.00   0.65084   3 ;    C41-   C40-   C37-   H63
  1616  1615  1622  1623   9   0.00   0.00000   0 ;    C41-   C40-   O31-   H67
  1617  1613  1616  1620   9   0.00   0.65084   3 ;    H62-   C38-   C41-   H65
  1617  1613  1616  1624   9   0.00   0.65084   3 ;    H62-   C38-   C41-   O32
  1617  1613  1632  1633   9   0.00   1.60387   3 ;    H62-   C38-   O35-   C43
  1618  1612  1614  1621   9   0.00   0.65084   3 ;    H63-   C37-   C39-   H66
  1618  1612  1614  1626   9   0.00   0.00000   0 ;    H63-   C37-   C39-   O33
  1618  1612  1614  1626   9   0.00   1.04600   1 ;    H63-   C37-   C39-   O33
  1618  1612  1614  1627   9   0.00   0.65084   3 ;    H63-   C37-   C39-   C42
  1618  1612  1615  1619   9   0.00   0.65084   3 ;    H63-   C37-   C40-   H64
  1618  1612  1615  1622   9   0.00   0.00000   0 ;    H63-   C37-   C40-   O31
  1618  1612  1615  1622   9   0.00   1.04600   1 ;    H63-   C37-   C40-   O31
  1619  1615  1616  1620   9   0.00   0.65084   3 ;    H64-   C40-   C41-   H65
  1619  1615  1616  1624   9   0.00   0.00000   0 ;    H64-   C40-   C41-   O32
  1619  1615  1616  1624   9   0.00   1.04600   1 ;    H64-   C40-   C41-   O32
  1619  1615  1622  1623   9   0.00   0.47279   3 ;    H64-   C40-   O31-   H67
  1620  1616  1613  1626   9   0.00   0.00000   0 ;    H65-   C41-   C38-   O33
  1620  1616  1613  1626   9   0.00   1.04600   1 ;    H65-   C41-   C38-   O33
  1620  1616  1613  1632   9   0.00   0.00000   0 ;    H65-   C41-   C38-   O35
  1620  1616  1613  1632   9   0.00   1.04600   1 ;    H65-   C41-   C38-   O35
  1620  1616  1615  1622   9   0.00   0.00000   0 ;    H65-   C41-   C40-   O31
  1620  1616  1615  1622   9   0.00   1.04600   1 ;    H65-   C41-   C40-   O31
  1620  1616  1624  1625   9   0.00   0.47279   3 ;    H65-   C41-   O32-   H68
  1621  1614  1627  1628   9   0.00   0.65084   3 ;    H66-   C39-   C42-   H69
  1621  1614  1627  1629   9   0.00   0.65084   3 ;    H66-   C39-   C42-   H70
  1621  1614  1627  1630   9   0.00   0.00000   0 ;    H66-   C39-   C42-   O34
  1621  1614  1627  1630   9   0.00   1.04600   1 ;    H66-   C39-   C42-   O34
  1622  1615  1616  1624   9   0.00   3.76560   3 ;    O31-   C40-   C41-   O32
  1622  1615  1616  1624   9   0.00   4.72792   2 ;    O31-   C40-   C41-   O32
  1624  1616  1613  1626   9   0.00   0.00000   0 ;    O32-   C41-   C38-   O33
  1624  1616  1613  1626   9   0.00   4.22584   3 ;    O32-   C41-   C38-   O33
  1624  1616  1613  1626   9   180.00   0.08368   1 ;    O32-   C41-   C38-   O33
  1624  1616  1613  1632   9   0.00   0.00000   0 ;    O32-   C41-   C38-   O35
  1624  1616  1613  1632   9   0.00   4.22584   3 ;    O32-   C41-   C38-   O35
  1624  1616  1613  1632   9   180.00   0.08368   1 ;    O32-   C41-   C38-   O35
  1626  1613  1632  1633   9   0.00   5.18816   2 ;    O33-   C38-   O35-   C43
  1626  1613  1632  1633   9   180.00   0.00000   3 ;    O33-   C38-   O35-   C43
  1626  1613  1632  1633   9   180.00   4.05848   1 ;    O33-   C38-   O35-   C43
  1626  1614  1627  1628   9   0.00   0.00000   0 ;    O33-   C39-   C42-   H69
  1626  1614  1627  1628   9   0.00   1.04600   1 ;    O33-   C39-   C42-   H69
  1626  1614  1627  1629   9   0.00   0.00000   0 ;    O33-   C39-   C42-   H70
  1626  1614  1627  1629   9   0.00   1.04600   1 ;    O33-   C39-   C42-   H70
  1626  1614  1627  1630   9   0.00   0.00000   0 ;    O33-   C39-   C42-   O34
  1626  1614  1627  1630   9   0.00   4.22584   3 ;    O33-   C39-   C42-   O34
  1626  1614  1627  1630   9   180.00   0.08368   1 ;    O33-   C39-   C42-   O34
  1628  1627  1630  1631   9   0.00   0.47279   3 ;    H69-   C42-   O34-   H71
  1629  1627  1630  1631   9   0.00   0.47279   3 ;    H70-   C42-   O34-   H71
  1632  1633  1635  1634   9   0.00   0.65084   3 ;    O35-   C43-   C45-   C44
  1632  1633  1635  1638   9   0.00   0.00000   0 ;    O35-   C43-   C45-   H72
  1632  1633  1635  1638   9   0.00   1.04600   1 ;    O35-   C43-   C45-   H72
  1632  1633  1635  1651   9   0.00   0.00000   0 ;    O35-   C43-   C45-   O39
  1632  1633  1635  1651   9   0.00   4.22584   3 ;    O35-   C43-   C45-   O39
  1632  1633  1635  1651   9   180.00   0.08368   1 ;    O35-   C43-   C45-   O39
  1632  1633  1636  1640   9   0.00   0.00000   0 ;    O35-   C43-   C46-   H74
  1632  1633  1636  1640   9   0.00   1.04600   1 ;    O35-   C43-   C46-   H74
  1632  1633  1636  1643   9   0.00   0.00000   0 ;    O35-   C43-   C46-   O36
  1632  1633  1636  1643   9   180.00   0.00000   2 ;    O35-   C43-   C46-   O36
  1632  1633  1636  1643   9   180.00   0.71128   1 ;    O35-   C43-   C46-   O36
  1632  1633  1636  1644   9   0.00   0.65084   3 ;    O35-   C43-   C46-   C48
  1633  1635  1634  1637   9   0.00   0.46024   1 ;    C43-   C45-   C44-   C47
  1633  1635  1634  1637   9   0.00   0.54392   3 ;    C43-   C45-   C44-   C47
  1633  1635  1634  1637   9   180.00   1.21336   2 ;    C43-   C45-   C44-   C47
  1633  1635  1634  1639   9   0.00   0.65084   3 ;    C43-   C45-   C44-   H73
  1633  1635  1634  1649   9   0.00   0.87864   3 ;    C43-   C45-   C44-   O38
  1633  1635  1651  1652   9   0.00   0.00000   0 ;    C43-   C45-   O39-   H81
  1633  1636  1643  1637   9   0.00   0.00000   0 ;    C43-   C46-   O36-   C47
  1633  1636  1643  1637   9   0.00   0.66944   2 ;    C43-   C46-   O36-   C47
  1633  1636  1643  1637   9   0.00   1.00416   3 ;    C43-   C46-   O36-   C47
  1633  1636  1644  1645   9   0.00   0.65084   3 ;    C43-   C46-   C48-   H77
  1633  1636  1644  1646   9   0.00   0.65084   3 ;    C43-   C46-   C48-   H78
  1633  1636  1644  1647   9   0.00   0.87864   3 ;    C43-   C46-   C48-   O37
  1634  1635  1633  1636   9   0.00   0.46024   1 ;    C44-   C45-   C43-   C46
  1634  1635  1633  1636   9   0.00   0.54392   3 ;    C44-   C45-   C43-   C46
  1634  1635  1633  1636   9   180.00   1.21336   2 ;    C44-   C45-   C43-   C46
  1634  1635  1633  1642   9   0.00   0.65084   3 ;    C44-   C45-   C43-   H76
  1634  1635  1651  1652   9   0.00   0.00000   0 ;    C44-   C45-   O39-   H81
  1634  1637  1643  1636   9   0.00   0.00000   0 ;    C44-   C47-   O36-   C46
  1634  1637  1643  1636   9   0.00   0.66944   2 ;    C44-   C47-   O36-   C46
  1634  1637  1643  1636   9   0.00   1.00416   3 ;    C44-   C47-   O36-   C46
  1634  1637  1653  1654   9   0.00   0.00000   0 ;    C44-   C47-   O40-   C49
  1634  1637  1653  1654   9   0.00   0.66944   2 ;    C44-   C47-   O40-   C49
  1634  1637  1653  1654   9   0.00   1.00416   3 ;    C44-   C47-   O40-   C49
  1635  1633  1636  1640   9   0.00   0.65084   3 ;    C45-   C43-   C46-   H74
  1635  1633  1636  1643   9   0.00   0.65084   3 ;    C45-   C43-   C46-   O36
  1635  1633  1636  1644   9   0.00   0.46024   1 ;    C45-   C43-   C46-   C48
  1635  1633  1636  1644   9   0.00   0.54392   3 ;    C45-   C43-   C46-   C48
  1635  1633  1636  1644   9   180.00   1.21336   2 ;    C45-   C43-   C46-   C48
  1635  1634  1637  1641   9   0.00   0.65084   3 ;    C45-   C44-   C47-   H75
  1635  1634  1637  1643   9   0.00   0.65084   3 ;    C45-   C44-   C47-   O36
  1635  1634  1637  1653   9   0.00   0.65084   3 ;    C45-   C44-   C47-   O40
  1635  1634  1649  1650   9   0.00   0.00000   0 ;    C45-   C44-   O38-   H80
  1636  1633  1635  1638   9   0.00   0.65084   3 ;    C46-   C43-   C45-   H72
  1636  1633  1635  1651   9   0.00   0.87864   3 ;    C46-   C43-   C45-   O39
  1636  1643  1637  1641   9   0.00   1.60387   3 ;    C46-   O36-   C47-   H75
  1636  1643  1637  1653   9   0.00   5.18816   2 ;    C46-   O36-   C47-   O40
  1636  1643  1637  1653   9   180.00   0.00000   3 ;    C46-   O36-   C47-   O40
  1636  1643  1637  1653   9   180.00   4.05848   1 ;    C46-   O36-   C47-   O40
  1636  1644  1647  1648   9   0.00   0.00000   0 ;    C46-   C48-   O37-   H79
  1637  1634  1635  1638   9   0.00   0.65084   3 ;    C47-   C44-   C45-   H72
  1637  1634  1635  1651   9   0.00   0.87864   3 ;    C47-   C44-   C45-   O39
  1637  1634  1649  1650   9   0.00   0.00000   0 ;    C47-   C44-   O38-   H80
  1637  1643  1636  1640   9   0.00   1.41001   3 ;    C47-   O36-   C46-   H74
  1637  1643  1636  1644   9   0.00   0.00000   0 ;    C47-   O36-   C46-   C48
  1637  1643  1636  1644   9   0.00   0.66944   2 ;    C47-   O36-   C46-   C48
  1637  1643  1636  1644   9   0.00   1.00416   3 ;    C47-   O36-   C46-   C48
  1637  1653  1654  1656   9   0.00   0.00000   0 ;    C47-   O40-   C49-   C51
  1637  1653  1654  1656   9   0.00   0.66944   2 ;    C47-   O40-   C49-   C51
  1637  1653  1654  1656   9   0.00   1.00416   3 ;    C47-   O40-   C49-   C51
  1637  1653  1654  1657   9   0.00   0.00000   0 ;    C47-   O40-   C49-   C52
  1637  1653  1654  1657   9   0.00   0.66944   2 ;    C47-   O40-   C49-   C52
  1637  1653  1654  1657   9   0.00   1.00416   3 ;    C47-   O40-   C49-   C52
  1637  1653  1654  1660   9   0.00   1.41001   3 ;    C47-   O40-   C49-   H83
  1638  1635  1633  1642   9   0.00   0.65084   3 ;    H72-   C45-   C43-   H76
  1638  1635  1634  1639   9   0.00   0.65084   3 ;    H72-   C45-   C44-   H73
  1638  1635  1634  1649   9   0.00   0.00000   0 ;    H72-   C45-   C44-   O38
  1638  1635  1634  1649   9   0.00   1.04600   1 ;    H72-   C45-   C44-   O38
  1638  1635  1651  1652   9   0.00   0.47279   3 ;    H72-   C45-   O39-   H81
  1639  1634  1635  1651   9   0.00   0.00000   0 ;    H73-   C44-   C45-   O39
  1639  1634  1635  1651   9   0.00   1.04600   1 ;    H73-   C44-   C45-   O39
  1639  1634  1637  1641   9   0.00   0.65084   3 ;    H73-   C44-   C47-   H75
  1639  1634  1637  1643   9   0.00   0.00000   0 ;    H73-   C44-   C47-   O36
  1639  1634  1637  1643   9   0.00   1.04600   1 ;    H73-   C44-   C47-   O36
  1639  1634  1637  1653   9   0.00   0.00000   0 ;    H73-   C44-   C47-   O40
  1639  1634  1637  1653   9   0.00   1.04600   1 ;    H73-   C44-   C47-   O40
  1639  1634  1649  1650   9   0.00   0.47279   3 ;    H73-   C44-   O38-   H80
  1640  1636  1633  1642   9   0.00   0.65084   3 ;    H74-   C46-   C43-   H76
  1640  1636  1644  1645   9   0.00   0.65084   3 ;    H74-   C46-   C48-   H77
  1640  1636  1644  1646   9   0.00   0.65084   3 ;    H74-   C46-   C48-   H78
  1640  1636  1644  1647   9   0.00   0.00000   0 ;    H74-   C46-   C48-   O37
  1640  1636  1644  1647   9   0.00   1.04600   1 ;    H74-   C46-   C48-   O37
  1641  1637  1634  1649   9   0.00   0.65084   3 ;    H75-   C47-   C44-   O38
  1641  1637  1653  1654   9   0.00   1.60387   3 ;    H75-   C47-   O40-   C49
  1642  1633  1635  1651   9   0.00   0.00000   0 ;    H76-   C43-   C45-   O39
  1642  1633  1635  1651   9   0.00   1.04600   1 ;    H76-   C43-   C45-   O39
  1642  1633  1636  1643   9   0.00   0.00000   0 ;    H76-   C43-   C46-   O36
  1642  1633  1636  1643   9   0.00   1.04600   1 ;    H76-   C43-   C46-   O36
  1642  1633  1636  1644   9   0.00   0.65084   3 ;    H76-   C43-   C46-   C48
  1643  1636  1644  1645   9   0.00   0.00000   0 ;    O36-   C46-   C48-   H77
  1643  1636  1644  1645   9   0.00   1.04600   1 ;    O36-   C46-   C48-   H77
  1643  1636  1644  1646   9   0.00   0.00000   0 ;    O36-   C46-   C48-   H78
  1643  1636  1644  1646   9   0.00   1.04600   1 ;    O36-   C46-   C48-   H78
  1643  1636  1644  1647   9   0.00   0.00000   0 ;    O36-   C46-   C48-   O37
  1643  1636  1644  1647   9   0.00   4.22584   3 ;    O36-   C46-   C48-   O37
  1643  1636  1644  1647   9   180.00   0.08368   1 ;    O36-   C46-   C48-   O37
  1643  1637  1634  1649   9   0.00   0.00000   0 ;    O36-   C47-   C44-   O38
  1643  1637  1634  1649   9   0.00   4.22584   3 ;    O36-   C47-   C44-   O38
  1643  1637  1634  1649   9   180.00   0.08368   1 ;    O36-   C47-   C44-   O38
  1643  1637  1653  1654   9   0.00   5.18816   2 ;    O36-   C47-   O40-   C49
  1643  1637  1653  1654   9   180.00   0.00000   3 ;    O36-   C47-   O40-   C49
  1643  1637  1653  1654   9   180.00   4.05848   1 ;    O36-   C47-   O40-   C49
  1645  1644  1647  1648   9   0.00   0.47279   3 ;    H77-   C48-   O37-   H79
  1646  1644  1647  1648   9   0.00   0.47279   3 ;    H78-   C48-   O37-   H79
  1649  1634  1635  1651   9   0.00   3.76560   3 ;    O38-   C44-   C45-   O39
  1649  1634  1635  1651   9   0.00   4.72792   2 ;    O38-   C44-   C45-   O39
  1649  1634  1637  1653   9   0.00   0.00000   0 ;    O38-   C44-   C47-   O40
  1649  1634  1637  1653   9   0.00   4.22584   3 ;    O38-   C44-   C47-   O40
  1649  1634  1637  1653   9   180.00   0.08368   1 ;    O38-   C44-   C47-   O40
  1653  1654  1656  1663   9   0.00   0.00000   0 ;    O40-   C49-   C51-   H86
  1653  1654  1656  1663   9   0.00   1.04600   1 ;    O40-   C49-   C51-   H86
  1653  1654  1656  1668   9   0.00   0.00000   0 ;    O40-   C49-   C51-   O43
  1653  1654  1656  1668   9   180.00   0.00000   2 ;    O40-   C49-   C51-   O43
  1653  1654  1656  1668   9   180.00   0.71128   1 ;    O40-   C49-   C51-   O43
  1653  1654  1656  1669   9   0.00   0.65084   3 ;    O40-   C49-   C51-   C54
  1653  1654  1657  1658   9   0.00   0.65084   3 ;    O40-   C49-   C52-   C53
  1653  1654  1657  1661   9   0.00   0.00000   0 ;    O40-   C49-   C52-   H84
  1653  1654  1657  1661   9   0.00   1.04600   1 ;    O40-   C49-   C52-   H84
  1653  1654  1657  1664   9   0.00   0.00000   0 ;    O40-   C49-   C52-   O41
  1653  1654  1657  1664   9   0.00   4.22584   3 ;    O40-   C49-   C52-   O41
  1653  1654  1657  1664   9   180.00   0.08368   1 ;    O40-   C49-   C52-   O41
  1654  1656  1668  1655   9   0.00   0.00000   0 ;    C49-   C51-   O43-   C50
  1654  1656  1668  1655   9   0.00   0.66944   2 ;    C49-   C51-   O43-   C50
  1654  1656  1668  1655   9   0.00   1.00416   3 ;    C49-   C51-   O43-   C50
  1654  1656  1669  1670   9   0.00   0.65084   3 ;    C49-   C51-   C54-   H89
  1654  1656  1669  1671   9   0.00   0.65084   3 ;    C49-   C51-   C54-   H90
  1654  1656  1669  1672   9   0.00   0.87864   3 ;    C49-   C51-   C54-   O44
  1654  1657  1658  1655   9   0.00   0.46024   1 ;    C49-   C52-   C53-   C50
  1654  1657  1658  1655   9   0.00   0.54392   3 ;    C49-   C52-   C53-   C50
  1654  1657  1658  1655   9   180.00   1.21336   2 ;    C49-   C52-   C53-   C50
  1654  1657  1658  1662   9   0.00   0.65084   3 ;    C49-   C52-   C53-   H85
  1654  1657  1658  1666   9   0.00   0.87864   3 ;    C49-   C52-   C53-   O42
  1654  1657  1664  1665   9   0.00   0.00000   0 ;    C49-   C52-   O41-   H87
  1655  1658  1657  1661   9   0.00   0.65084   3 ;    C50-   C53-   C52-   H84
  1655  1658  1657  1664   9   0.00   0.87864   3 ;    C50-   C53-   C52-   O41
  1655  1658  1666  1667   9   0.00   0.00000   0 ;    C50-   C53-   O42-   H88
  1655  1668  1656  1663   9   0.00   1.41001   3 ;    C50-   O43-   C51-   H86
  1655  1668  1656  1669   9   0.00   0.00000   0 ;    C50-   O43-   C51-   C54
  1655  1668  1656  1669   9   0.00   0.66944   2 ;    C50-   O43-   C51-   C54
  1655  1668  1656  1669   9   0.00   1.00416   3 ;    C50-   O43-   C51-   C54
  1655  1674  1675  1677   9   0.00   0.00000   0 ;    C50-   O45-   C55-   C57
  1655  1674  1675  1677   9   0.00   0.66944   2 ;    C50-   O45-   C55-   C57
  1655  1674  1675  1677   9   0.00   1.00416   3 ;    C50-   O45-   C55-   C57
  1655  1674  1675  1678   9   0.00   0.00000   0 ;    C50-   O45-   C55-   C58
  1655  1674  1675  1678   9   0.00   0.66944   2 ;    C50-   O45-   C55-   C58
  1655  1674  1675  1678   9   0.00   1.00416   3 ;    C50-   O45-   C55-   C58
  1655  1674  1675  1684   9   0.00   1.41001   3 ;    C50-   O45-   C55-   H96
  1656  1654  1657  1658   9   0.00   0.46024   1 ;    C51-   C49-   C52-   C53
  1656  1654  1657  1658   9   0.00   0.54392   3 ;    C51-   C49-   C52-   C53
  1656  1654  1657  1658   9   180.00   1.21336   2 ;    C51-   C49-   C52-   C53
  1656  1654  1657  1661   9   0.00   0.65084   3 ;    C51-   C49-   C52-   H84
  1656  1654  1657  1664   9   0.00   0.87864   3 ;    C51-   C49-   C52-   O41
  1656  1668  1655  1658   9   0.00   0.00000   0 ;    C51-   O43-   C50-   C53
  1656  1668  1655  1658   9   0.00   0.66944   2 ;    C51-   O43-   C50-   C53
  1656  1668  1655  1658   9   0.00   1.00416   3 ;    C51-   O43-   C50-   C53
  1656  1668  1655  1659   9   0.00   1.60387   3 ;    C51-   O43-   C50-   H82
  1656  1668  1655  1674   9   0.00   5.18816   2 ;    C51-   O43-   C50-   O45
  1656  1668  1655  1674   9   180.00   0.00000   3 ;    C51-   O43-   C50-   O45
  1656  1668  1655  1674   9   180.00   4.05848   1 ;    C51-   O43-   C50-   O45
  1656  1669  1672  1673   9   0.00   0.00000   0 ;    C51-   C54-   O44-   H91
  1657  1654  1656  1663   9   0.00   0.65084   3 ;    C52-   C49-   C51-   H86
  1657  1654  1656  1668   9   0.00   0.65084   3 ;    C52-   C49-   C51-   O43
  1657  1654  1656  1669   9   0.00   0.46024   1 ;    C52-   C49-   C51-   C54
  1657  1654  1656  1669   9   0.00   0.54392   3 ;    C52-   C49-   C51-   C54
  1657  1654  1656  1669   9   180.00   1.21336   2 ;    C52-   C49-   C51-   C54
  1657  1658  1655  1659   9   0.00   0.65084   3 ;    C52-   C53-   C50-   H82
  1657  1658  1655  1668   9   0.00   0.65084   3 ;    C52-   C53-   C50-   O43
  1657  1658  1655  1674   9   0.00   0.65084   3 ;    C52-   C53-   C50-   O45
  1657  1658  1666  1667   9   0.00   0.00000   0 ;    C52-   C53-   O42-   H88
  1658  1655  1674  1675   9   0.00   0.00000   0 ;    C53-   C50-   O45-   C55
  1658  1655  1674  1675   9   0.00   0.66944   2 ;    C53-   C50-   O45-   C55
  1658  1655  1674  1675   9   0.00   1.00416   3 ;    C53-   C50-   O45-   C55
  1658  1657  1654  1660   9   0.00   0.65084   3 ;    C53-   C52-   C49-   H83
  1658  1657  1664  1665   9   0.00   0.00000   0 ;    C53-   C52-   O41-   H87
  1659  1655  1658  1662   9   0.00   0.65084   3 ;    H82-   C50-   C53-   H85
  1659  1655  1658  1666   9   0.00   0.65084   3 ;    H82-   C50-   C53-   O42
  1659  1655  1674  1675   9   0.00   1.60387   3 ;    H82-   C50-   O45-   C55
  1660  1654  1656  1663   9   0.00   0.65084   3 ;    H83-   C49-   C51-   H86
  1660  1654  1656  1668   9   0.00   0.00000   0 ;    H83-   C49-   C51-   O43
  1660  1654  1656  1668   9   0.00   1.04600   1 ;    H83-   C49-   C51-   O43
  1660  1654  1656  1669   9   0.00   0.65084   3 ;    H83-   C49-   C51-   C54
  1660  1654  1657  1661   9   0.00   0.65084   3 ;    H83-   C49-   C52-   H84
  1660  1654  1657  1664   9   0.00   0.00000   0 ;    H83-   C49-   C52-   O41
  1660  1654  1657  1664   9   0.00   1.04600   1 ;    H83-   C49-   C52-   O41
  1661  1657  1658  1662   9   0.00   0.65084   3 ;    H84-   C52-   C53-   H85
  1661  1657  1658  1666   9   0.00   0.00000   0 ;    H84-   C52-   C53-   O42
  1661  1657  1658  1666   9   0.00   1.04600   1 ;    H84-   C52-   C53-   O42
  1661  1657  1664  1665   9   0.00   0.47279   3 ;    H84-   C52-   O41-   H87
  1662  1658  1655  1668   9   0.00   0.00000   0 ;    H85-   C53-   C50-   O43
  1662  1658  1655  1668   9   0.00   1.04600   1 ;    H85-   C53-   C50-   O43
  1662  1658  1655  1674   9   0.00   0.00000   0 ;    H85-   C53-   C50-   O45
  1662  1658  1655  1674   9   0.00   1.04600   1 ;    H85-   C53-   C50-   O45
  1662  1658  1657  1664   9   0.00   0.00000   0 ;    H85-   C53-   C52-   O41
  1662  1658  1657  1664   9   0.00   1.04600   1 ;    H85-   C53-   C52-   O41
  1662  1658  1666  1667   9   0.00   0.47279   3 ;    H85-   C53-   O42-   H88
  1663  1656  1669  1670   9   0.00   0.65084   3 ;    H86-   C51-   C54-   H89
  1663  1656  1669  1671   9   0.00   0.65084   3 ;    H86-   C51-   C54-   H90
  1663  1656  1669  1672   9   0.00   0.00000   0 ;    H86-   C51-   C54-   O44
  1663  1656  1669  1672   9   0.00   1.04600   1 ;    H86-   C51-   C54-   O44
  1664  1657  1658  1666   9   0.00   3.76560   3 ;    O41-   C52-   C53-   O42
  1664  1657  1658  1666   9   0.00   4.72792   2 ;    O41-   C52-   C53-   O42
  1666  1658  1655  1668   9   0.00   0.00000   0 ;    O42-   C53-   C50-   O43
  1666  1658  1655  1668   9   0.00   4.22584   3 ;    O42-   C53-   C50-   O43
  1666  1658  1655  1668   9   180.00   0.08368   1 ;    O42-   C53-   C50-   O43
  1666  1658  1655  1674   9   0.00   0.00000   0 ;    O42-   C53-   C50-   O45
  1666  1658  1655  1674   9   0.00   4.22584   3 ;    O42-   C53-   C50-   O45
  1666  1658  1655  1674   9   180.00   0.08368   1 ;    O42-   C53-   C50-   O45
  1668  1655  1674  1675   9   0.00   5.18816   2 ;    O43-   C50-   O45-   C55
  1668  1655  1674  1675   9   180.00   0.00000   3 ;    O43-   C50-   O45-   C55
  1668  1655  1674  1675   9   180.00   4.05848   1 ;    O43-   C50-   O45-   C55
  1668  1656  1669  1670   9   0.00   0.00000   0 ;    O43-   C51-   C54-   H89
  1668  1656  1669  1670   9   0.00   1.04600   1 ;    O43-   C51-   C54-   H89
  1668  1656  1669  1671   9   0.00   0.00000   0 ;    O43-   C51-   C54-   H90
  1668  1656  1669  1671   9   0.00   1.04600   1 ;    O43-   C51-   C54-   H90
  1668  1656  1669  1672   9   0.00   0.00000   0 ;    O43-   C51-   C54-   O44
  1668  1656  1669  1672   9   0.00   4.22584   3 ;    O43-   C51-   C54-   O44
  1668  1656  1669  1672   9   180.00   0.08368   1 ;    O43-   C51-   C54-   O44
  1670  1669  1672  1673   9   0.00   0.47279   3 ;    H89-   C54-   O44-   H91
  1671  1669  1672  1673   9   0.00   0.47279   3 ;    H90-   C54-   O44-   H91
  1674  1675  1677  1676   9   0.00   0.65084   3 ;    O45-   C55-   C57-   C56
  1674  1675  1677  1680   9   0.00   0.00000   0 ;    O45-   C55-   C57-   H92
  1674  1675  1677  1680   9   0.00   1.04600   1 ;    O45-   C55-   C57-   H92
  1674  1675  1677  1693   9   0.00   0.00000   0 ;    O45-   C55-   C57-   O49
  1674  1675  1677  1693   9   0.00   4.22584   3 ;    O45-   C55-   C57-   O49
  1674  1675  1677  1693   9   180.00   0.08368   1 ;    O45-   C55-   C57-   O49
  1674  1675  1678  1682   9   0.00   0.00000   0 ;    O45-   C55-   C58-   H94
  1674  1675  1678  1682   9   0.00   1.04600   1 ;    O45-   C55-   C58-   H94
  1674  1675  1678  1685   9   0.00   0.00000   0 ;    O45-   C55-   C58-   O46
  1674  1675  1678  1685   9   180.00   0.00000   2 ;    O45-   C55-   C58-   O46
  1674  1675  1678  1685   9   180.00   0.71128   1 ;    O45-   C55-   C58-   O46
  1674  1675  1678  1686   9   0.00   0.65084   3 ;    O45-   C55-   C58-   C60
  1675  1677  1676  1679   9   0.00   0.46024   1 ;    C55-   C57-   C56-   C59
  1675  1677  1676  1679   9   0.00   0.54392   3 ;    C55-   C57-   C56-   C59
  1675  1677  1676  1679   9   180.00   1.21336   2 ;    C55-   C57-   C56-   C59
  1675  1677  1676  1681   9   0.00   0.65084   3 ;    C55-   C57-   C56-   H93
  1675  1677  1676  1691   9   0.00   0.87864   3 ;    C55-   C57-   C56-   O48
  1675  1677  1693  1694   9   0.00   0.00000   0 ;    C55-   C57-   O49-  H101
  1675  1678  1685  1679   9   0.00   0.00000   0 ;    C55-   C58-   O46-   C59
  1675  1678  1685  1679   9   0.00   0.66944   2 ;    C55-   C58-   O46-   C59
  1675  1678  1685  1679   9   0.00   1.00416   3 ;    C55-   C58-   O46-   C59
  1675  1678  1686  1687   9   0.00   0.65084   3 ;    C55-   C58-   C60-   H97
  1675  1678  1686  1688   9   0.00   0.65084   3 ;    C55-   C58-   C60-   H98
  1675  1678  1686  1689   9   0.00   0.87864   3 ;    C55-   C58-   C60-   O47
  1676  1677  1675  1678   9   0.00   0.46024   1 ;    C56-   C57-   C55-   C58
  1676  1677  1675  1678   9   0.00   0.54392   3 ;    C56-   C57-   C55-   C58
  1676  1677  1675  1678   9   180.00   1.21336   2 ;    C56-   C57-   C55-   C58
  1676  1677  1675  1684   9   0.00   0.65084   3 ;    C56-   C57-   C55-   H96
  1676  1677  1693  1694   9   0.00   0.00000   0 ;    C56-   C57-   O49-  H101
  1676  1679  1685  1678   9   0.00   0.00000   0 ;    C56-   C59-   O46-   C58
  1676  1679  1685  1678   9   0.00   0.66944   2 ;    C56-   C59-   O46-   C58
  1676  1679  1685  1678   9   0.00   1.00416   3 ;    C56-   C59-   O46-   C58
  1676  1679  1695  1696   9   0.00   0.00000   0 ;    C56-   C59-   O50-  H102
  1677  1675  1678  1682   9   0.00   0.65084   3 ;    C57-   C55-   C58-   H94
  1677  1675  1678  1685   9   0.00   0.65084   3 ;    C57-   C55-   C58-   O46
  1677  1675  1678  1686   9   0.00   0.46024   1 ;    C57-   C55-   C58-   C60
  1677  1675  1678  1686   9   0.00   0.54392   3 ;    C57-   C55-   C58-   C60
  1677  1675  1678  1686   9   180.00   1.21336   2 ;    C57-   C55-   C58-   C60
  1677  1676  1679  1683   9   0.00   0.65084   3 ;    C57-   C56-   C59-   H95
  1677  1676  1679  1685   9   0.00   0.65084   3 ;    C57-   C56-   C59-   O46
  1677  1676  1679  1695   9   0.00   0.87864   3 ;    C57-   C56-   C59-   O50
  1677  1676  1691  1692   9   0.00   0.00000   0 ;    C57-   C56-   O48-  H100
  1678  1675  1677  1680   9   0.00   0.65084   3 ;    C58-   C55-   C57-   H92
  1678  1675  1677  1693   9   0.00   0.87864   3 ;    C58-   C55-   C57-   O49
  1678  1685  1679  1683   9   0.00   1.60387   3 ;    C58-   O46-   C59-   H95
  1678  1685  1679  1695   9   0.00   1.60387   3 ;    C58-   O46-   C59-   O50
  1678  1686  1689  1690   9   0.00   0.00000   0 ;    C58-   C60-   O47-   H99
  1679  1676  1677  1680   9   0.00   0.65084   3 ;    C59-   C56-   C57-   H92
  1679  1676  1677  1693   9   0.00   0.87864   3 ;    C59-   C56-   C57-   O49
  1679  1676  1691  1692   9   0.00   0.00000   0 ;    C59-   C56-   O48-  H100
  1679  1685  1678  1682   9   0.00   1.41001   3 ;    C59-   O46-   C58-   H94
  1679  1685  1678  1686   9   0.00   0.00000   0 ;    C59-   O46-   C58-   C60
  1679  1685  1678  1686   9   0.00   0.66944   2 ;    C59-   O46-   C58-   C60
  1679  1685  1678  1686   9   0.00   1.00416   3 ;    C59-   O46-   C58-   C60
  1680  1677  1675  1684   9   0.00   0.65084   3 ;    H92-   C57-   C55-   H96
  1680  1677  1676  1681   9   0.00   0.65084   3 ;    H92-   C57-   C56-   H93
  1680  1677  1676  1691   9   0.00   0.00000   0 ;    H92-   C57-   C56-   O48
  1680  1677  1676  1691   9   0.00   1.04600   1 ;    H92-   C57-   C56-   O48
  1680  1677  1693  1694   9   0.00   0.47279   3 ;    H92-   C57-   O49-  H101
  1681  1676  1677  1693   9   0.00   0.00000   0 ;    H93-   C56-   C57-   O49
  1681  1676  1677  1693   9   0.00   1.04600   1 ;    H93-   C56-   C57-   O49
  1681  1676  1679  1683   9   0.00   0.65084   3 ;    H93-   C56-   C59-   H95
  1681  1676  1679  1685   9   0.00   0.00000   0 ;    H93-   C56-   C59-   O46
  1681  1676  1679  1685   9   0.00   1.04600   1 ;    H93-   C56-   C59-   O46
  1681  1676  1679  1695   9   0.00   0.00000   0 ;    H93-   C56-   C59-   O50
  1681  1676  1679  1695   9   0.00   1.04600   1 ;    H93-   C56-   C59-   O50
  1681  1676  1691  1692   9   0.00   0.47279   3 ;    H93-   C56-   O48-  H100
  1682  1678  1675  1684   9   0.00   0.65084   3 ;    H94-   C58-   C55-   H96
  1682  1678  1686  1687   9   0.00   0.65084   3 ;    H94-   C58-   C60-   H97
  1682  1678  1686  1688   9   0.00   0.65084   3 ;    H94-   C58-   C60-   H98
  1682  1678  1686  1689   9   0.00   0.00000   0 ;    H94-   C58-   C60-   O47
  1682  1678  1686  1689   9   0.00   1.04600   1 ;    H94-   C58-   C60-   O47
  1683  1679  1676  1691   9   0.00   0.65084   3 ;    H95-   C59-   C56-   O48
  1683  1679  1695  1696   9   0.00   0.69733   3 ;    H95-   C59-   O50-  H102
  1684  1675  1677  1693   9   0.00   0.00000   0 ;    H96-   C55-   C57-   O49
  1684  1675  1677  1693   9   0.00   1.04600   1 ;    H96-   C55-   C57-   O49
  1684  1675  1678  1685   9   0.00   0.00000   0 ;    H96-   C55-   C58-   O46
  1684  1675  1678  1685   9   0.00   1.04600   1 ;    H96-   C55-   C58-   O46
  1684  1675  1678  1686   9   0.00   0.65084   3 ;    H96-   C55-   C58-   C60
  1685  1678  1686  1687   9   0.00   0.00000   0 ;    O46-   C58-   C60-   H97
  1685  1678  1686  1687   9   0.00   1.04600   1 ;    O46-   C58-   C60-   H97
  1685  1678  1686  1688   9   0.00   0.00000   0 ;    O46-   C58-   C60-   H98
  1685  1678  1686  1688   9   0.00   1.04600   1 ;    O46-   C58-   C60-   H98
  1685  1678  1686  1689   9   0.00   0.00000   0 ;    O46-   C58-   C60-   O47
  1685  1678  1686  1689   9   0.00   4.22584   3 ;    O46-   C58-   C60-   O47
  1685  1678  1686  1689   9   180.00   0.08368   1 ;    O46-   C58-   C60-   O47
  1685  1679  1676  1691   9   0.00   0.00000   0 ;    O46-   C59-   C56-   O48
  1685  1679  1676  1691   9   0.00   4.22584   3 ;    O46-   C59-   C56-   O48
  1685  1679  1676  1691   9   180.00   0.08368   1 ;    O46-   C59-   C56-   O48
  1685  1679  1695  1696   9   0.00   0.69733   3 ;    O46-   C59-   O50-  H102
  1687  1686  1689  1690   9   0.00   0.47279   3 ;    H97-   C60-   O47-   H99
  1688  1686  1689  1690   9   0.00   0.47279   3 ;    H98-   C60-   O47-   H99
  1691  1676  1677  1693   9   0.00   3.76560   3 ;    O48-   C56-   C57-   O49
  1691  1676  1677  1693   9   0.00   4.72792   2 ;    O48-   C56-   C57-   O49
  1691  1676  1679  1695   9   0.00   3.76560   3 ;    O48-   C56-   C59-   O50
  1691  1676  1679  1695   9   0.00   4.72792   2 ;    O48-   C56-   C59-   O50
  1697  1698  1700  1707   9   0.00   0.65084   3 ;     H1-    C1-    C3-    H6
  1697  1698  1700  1712   9   0.00   0.00000   0 ;     H1-    C1-    C3-    O3
  1697  1698  1700  1712   9   0.00   1.04600   1 ;     H1-    C1-    C3-    O3
  1697  1698  1700  1713   9   0.00   0.33472   3 ;     H1-    C1-    C3-    C6
  1697  1698  1701  1702   9   0.00   0.33472   3 ;     H1-    C1-    C4-    C5
  1697  1698  1701  1705   9   0.00   0.65084   3 ;     H1-    C1-    C4-    H4
  1697  1698  1701  1708   9   0.00   0.75312   3 ;     H1-    C1-    C4-    O1
  1697  1698  1701  1708   9   0.00   2.13384   1 ;     H1-    C1-    C4-    O1
  1698  1700  1712  1699   9   0.00   0.00000   0 ;     C1-    C3-    O3-    C2
  1698  1700  1712  1699   9   0.00   0.66944   2 ;     C1-    C3-    O3-    C2
  1698  1700  1712  1699   9   0.00   1.00416   3 ;     C1-    C3-    O3-    C2
  1698  1700  1713  1714   9   0.00   0.65084   3 ;     C1-    C3-    C6-    H9
  1698  1700  1713  1715   9   0.00   0.65084   3 ;     C1-    C3-    C6-   H10
  1698  1700  1713  1716   9   0.00   0.87864   3 ;     C1-    C3-    C6-    O4
  1698  1701  1702  1699   9   0.00   0.46024   1 ;     C1-    C4-    C5-    C2
  1698  1701  1702  1699   9   0.00   0.54392   3 ;     C1-    C4-    C5-    C2
  1698  1701  1702  1699   9   180.00   1.21336   2 ;     C1-    C4-    C5-    C2
  1698  1701  1702  1706   9   0.00   0.65084   3 ;     C1-    C4-    C5-    H5
  1698  1701  1702  1710   9   0.00   0.87864   3 ;     C1-    C4-    C5-    O2
  1698  1701  1708  1709   9   0.00   0.00000   0 ;     C1-    C4-    O1-    H7
  1699  1702  1701  1705   9   0.00   0.65084   3 ;     C2-    C5-    C4-    H4
  1699  1702  1701  1708   9   0.00   0.87864   3 ;     C2-    C5-    C4-    O1
  1699  1702  1710  1711   9   0.00   0.00000   0 ;     C2-    C5-    O2-    H8
  1699  1712  1700  1707   9   0.00   1.41001   3 ;     C2-    O3-    C3-    H6
  1699  1712  1700  1713   9   0.00   0.00000   0 ;     C2-    O3-    C3-    C6
  1699  1712  1700  1713   9   0.00   0.66944   2 ;     C2-    O3-    C3-    C6
  1699  1712  1700  1713   9   0.00   1.00416   3 ;     C2-    O3-    C3-    C6
  1699  1718  1719  1721   9   0.00   0.00000   0 ;     C2-    O5-    C7-    C9
  1699  1718  1719  1721   9   0.00   0.66944   2 ;     C2-    O5-    C7-    C9
  1699  1718  1719  1721   9   0.00   1.00416   3 ;     C2-    O5-    C7-    C9
  1699  1718  1719  1722   9   0.00   0.00000   0 ;     C2-    O5-    C7-   C10
  1699  1718  1719  1722   9   0.00   0.66944   2 ;     C2-    O5-    C7-   C10
  1699  1718  1719  1722   9   0.00   1.00416   3 ;     C2-    O5-    C7-   C10
  1699  1718  1719  1728   9   0.00   1.41001   3 ;     C2-    O5-    C7-   H16
  1700  1698  1701  1702   9   0.00   0.46024   1 ;     C3-    C1-    C4-    C5
  1700  1698  1701  1702   9   0.00   0.54392   3 ;     C3-    C1-    C4-    C5
  1700  1698  1701  1702   9   180.00   1.21336   2 ;     C3-    C1-    C4-    C5
  1700  1698  1701  1705   9   0.00   0.65084   3 ;     C3-    C1-    C4-    H4
  1700  1698  1701  1708   9   0.00   0.87864   3 ;     C3-    C1-    C4-    O1
  1700  1712  1699  1702   9   0.00   0.00000   0 ;     C3-    O3-    C2-    C5
  1700  1712  1699  1702   9   0.00   0.66944   2 ;     C3-    O3-    C2-    C5
  1700  1712  1699  1702   9   0.00   1.00416   3 ;     C3-    O3-    C2-    C5
  1700  1712  1699  1703   9   0.00   1.60387   3 ;     C3-    O3-    C2-    H2
  1700  1712  1699  1718   9   0.00   5.18816   2 ;     C3-    O3-    C2-    O5
  1700  1712  1699  1718   9   180.00   0.00000   3 ;     C3-    O3-    C2-    O5
  1700  1712  1699  1718   9   180.00   4.05848   1 ;     C3-    O3-    C2-    O5
  1700  1713  1716  1717   9   0.00   0.00000   0 ;     C3-    C6-    O4-   H11
  1701  1698  1700  1707   9   0.00   0.65084   3 ;     C4-    C1-    C3-    H6
  1701  1698  1700  1712   9   0.00   0.65084   3 ;     C4-    C1-    C3-    O3
  1701  1698  1700  1713   9   0.00   0.46024   1 ;     C4-    C1-    C3-    C6
  1701  1698  1700  1713   9   0.00   0.54392   3 ;     C4-    C1-    C3-    C6
  1701  1698  1700  1713   9   180.00   1.21336   2 ;     C4-    C1-    C3-    C6
  1701  1702  1699  1703   9   0.00   0.65084   3 ;     C4-    C5-    C2-    H2
  1701  1702  1699  1712   9   0.00   0.65084   3 ;     C4-    C5-    C2-    O3
  1701  1702  1699  1718   9   0.00   0.65084   3 ;     C4-    C5-    C2-    O5
  1701  1702  1710  1711   9   0.00   0.00000   0 ;     C4-    C5-    O2-    H8
  1702  1699  1718  1719   9   0.00   0.00000   0 ;     C5-    C2-    O5-    C7
  1702  1699  1718  1719   9   0.00   0.66944   2 ;     C5-    C2-    O5-    C7
  1702  1699  1718  1719   9   0.00   1.00416   3 ;     C5-    C2-    O5-    C7
  1702  1701  1698  1704   9   0.00   0.33472   3 ;     C5-    C4-    C1-    H3
  1702  1701  1708  1709   9   0.00   0.00000   0 ;     C5-    C4-    O1-    H7
  1703  1699  1702  1706   9   0.00   0.65084   3 ;     H2-    C2-    C5-    H5
  1703  1699  1702  1710   9   0.00   0.65084   3 ;     H2-    C2-    C5-    O2
  1703  1699  1718  1719   9   0.00   1.60387   3 ;     H2-    C2-    O5-    C7
  1704  1698  1700  1707   9   0.00   0.65084   3 ;     H3-    C1-    C3-    H6
  1704  1698  1700  1712   9   0.00   0.00000   0 ;     H3-    C1-    C3-    O3
  1704  1698  1700  1712   9   0.00   1.04600   1 ;     H3-    C1-    C3-    O3
  1704  1698  1700  1713   9   0.00   0.33472   3 ;     H3-    C1-    C3-    C6
  1704  1698  1701  1705   9   0.00   0.65084   3 ;     H3-    C1-    C4-    H4
  1704  1698  1701  1708   9   0.00   0.75312   3 ;     H3-    C1-    C4-    O1
  1704  1698  1701  1708   9   0.00   2.13384   1 ;     H3-    C1-    C4-    O1
  1705  1701  1702  1706   9   0.00   0.65084   3 ;     H4-    C4-    C5-    H5
  1705  1701  1702  1710   9   0.00   0.00000   0 ;     H4-    C4-    C5-    O2
  1705  1701  1702  1710   9   0.00   1.04600   1 ;     H4-    C4-    C5-    O2
  1705  1701  1708  1709   9   0.00   0.47279   3 ;     H4-    C4-    O1-    H7
  1706  1702  1699  1712   9   0.00   0.00000   0 ;     H5-    C5-    C2-    O3
  1706  1702  1699  1712   9   0.00   1.04600   1 ;     H5-    C5-    C2-    O3
  1706  1702  1699  1718   9   0.00   0.00000   0 ;     H5-    C5-    C2-    O5
  1706  1702  1699  1718   9   0.00   1.04600   1 ;     H5-    C5-    C2-    O5
  1706  1702  1701  1708   9   0.00   0.00000   0 ;     H5-    C5-    C4-    O1
  1706  1702  1701  1708   9   0.00   1.04600   1 ;     H5-    C5-    C4-    O1
  1706  1702  1710  1711   9   0.00   0.47279   3 ;     H5-    C5-    O2-    H8
  1707  1700  1713  1714   9   0.00   0.65084   3 ;     H6-    C3-    C6-    H9
  1707  1700  1713  1715   9   0.00   0.65084   3 ;     H6-    C3-    C6-   H10
  1707  1700  1713  1716   9   0.00   0.00000   0 ;     H6-    C3-    C6-    O4
  1707  1700  1713  1716   9   0.00   1.04600   1 ;     H6-    C3-    C6-    O4
  1708  1701  1702  1710   9   0.00   3.76560   3 ;     O1-    C4-    C5-    O2
  1708  1701  1702  1710   9   0.00   4.72792   2 ;     O1-    C4-    C5-    O2
  1710  1702  1699  1712   9   0.00   0.00000   0 ;     O2-    C5-    C2-    O3
  1710  1702  1699  1712   9   0.00   4.22584   3 ;     O2-    C5-    C2-    O3
  1710  1702  1699  1712   9   180.00   0.08368   1 ;     O2-    C5-    C2-    O3
  1710  1702  1699  1718   9   0.00   0.00000   0 ;     O2-    C5-    C2-    O5
  1710  1702  1699  1718   9   0.00   4.22584   3 ;     O2-    C5-    C2-    O5
  1710  1702  1699  1718   9   180.00   0.08368   1 ;     O2-    C5-    C2-    O5
  1712  1699  1718  1719   9   0.00   5.18816   2 ;     O3-    C2-    O5-    C7
  1712  1699  1718  1719   9   180.00   0.00000   3 ;     O3-    C2-    O5-    C7
  1712  1699  1718  1719   9   180.00   4.05848   1 ;     O3-    C2-    O5-    C7
  1712  1700  1713  1714   9   0.00   0.00000   0 ;     O3-    C3-    C6-    H9
  1712  1700  1713  1714   9   0.00   1.04600   1 ;     O3-    C3-    C6-    H9
  1712  1700  1713  1715   9   0.00   0.00000   0 ;     O3-    C3-    C6-   H10
  1712  1700  1713  1715   9   0.00   1.04600   1 ;     O3-    C3-    C6-   H10
  1712  1700  1713  1716   9   0.00   0.00000   0 ;     O3-    C3-    C6-    O4
  1712  1700  1713  1716   9   0.00   4.22584   3 ;     O3-    C3-    C6-    O4
  1712  1700  1713  1716   9   180.00   0.08368   1 ;     O3-    C3-    C6-    O4
  1714  1713  1716  1717   9   0.00   0.47279   3 ;     H9-    C6-    O4-   H11
  1715  1713  1716  1717   9   0.00   0.47279   3 ;    H10-    C6-    O4-   H11
  1718  1719  1721  1720   9   0.00   0.65084   3 ;     O5-    C7-    C9-    C8
  1718  1719  1721  1724   9   0.00   0.00000   0 ;     O5-    C7-    C9-   H12
  1718  1719  1721  1724   9   0.00   1.04600   1 ;     O5-    C7-    C9-   H12
  1718  1719  1721  1737   9   0.00   0.00000   0 ;     O5-    C7-    C9-    O9
  1718  1719  1721  1737   9   0.00   4.22584   3 ;     O5-    C7-    C9-    O9
  1718  1719  1721  1737   9   180.00   0.08368   1 ;     O5-    C7-    C9-    O9
  1718  1719  1722  1726   9   0.00   0.00000   0 ;     O5-    C7-   C10-   H14
  1718  1719  1722  1726   9   0.00   1.04600   1 ;     O5-    C7-   C10-   H14
  1718  1719  1722  1729   9   0.00   0.00000   0 ;     O5-    C7-   C10-    O6
  1718  1719  1722  1729   9   180.00   0.00000   2 ;     O5-    C7-   C10-    O6
  1718  1719  1722  1729   9   180.00   0.71128   1 ;     O5-    C7-   C10-    O6
  1718  1719  1722  1730   9   0.00   0.65084   3 ;     O5-    C7-   C10-   C12
  1719  1721  1720  1723   9   0.00   0.46024   1 ;     C7-    C9-    C8-   C11
  1719  1721  1720  1723   9   0.00   0.54392   3 ;     C7-    C9-    C8-   C11
  1719  1721  1720  1723   9   180.00   1.21336   2 ;     C7-    C9-    C8-   C11
  1719  1721  1720  1725   9   0.00   0.65084   3 ;     C7-    C9-    C8-   H13
  1719  1721  1720  1735   9   0.00   0.87864   3 ;     C7-    C9-    C8-    O8
  1719  1721  1737  1738   9   0.00   0.00000   0 ;     C7-    C9-    O9-   H21
  1719  1722  1729  1723   9   0.00   0.00000   0 ;     C7-   C10-    O6-   C11
  1719  1722  1729  1723   9   0.00   0.66944   2 ;     C7-   C10-    O6-   C11
  1719  1722  1729  1723   9   0.00   1.00416   3 ;     C7-   C10-    O6-   C11
  1719  1722  1730  1731   9   0.00   0.65084   3 ;     C7-   C10-   C12-   H17
  1719  1722  1730  1732   9   0.00   0.65084   3 ;     C7-   C10-   C12-   H18
  1719  1722  1730  1733   9   0.00   0.87864   3 ;     C7-   C10-   C12-    O7
  1720  1721  1719  1722   9   0.00   0.46024   1 ;     C8-    C9-    C7-   C10
  1720  1721  1719  1722   9   0.00   0.54392   3 ;     C8-    C9-    C7-   C10
  1720  1721  1719  1722   9   180.00   1.21336   2 ;     C8-    C9-    C7-   C10
  1720  1721  1719  1728   9   0.00   0.65084   3 ;     C8-    C9-    C7-   H16
  1720  1721  1737  1738   9   0.00   0.00000   0 ;     C8-    C9-    O9-   H21
  1720  1723  1729  1722   9   0.00   0.00000   0 ;     C8-   C11-    O6-   C10
  1720  1723  1729  1722   9   0.00   0.66944   2 ;     C8-   C11-    O6-   C10
  1720  1723  1729  1722   9   0.00   1.00416   3 ;     C8-   C11-    O6-   C10
  1720  1723  1739  1740   9   0.00   0.00000   0 ;     C8-   C11-   O10-   C13
  1720  1723  1739  1740   9   0.00   0.66944   2 ;     C8-   C11-   O10-   C13
  1720  1723  1739  1740   9   0.00   1.00416   3 ;     C8-   C11-   O10-   C13
  1721  1719  1722  1726   9   0.00   0.65084   3 ;     C9-    C7-   C10-   H14
  1721  1719  1722  1729   9   0.00   0.65084   3 ;     C9-    C7-   C10-    O6
  1721  1719  1722  1730   9   0.00   0.46024   1 ;     C9-    C7-   C10-   C12
  1721  1719  1722  1730   9   0.00   0.54392   3 ;     C9-    C7-   C10-   C12
  1721  1719  1722  1730   9   180.00   1.21336   2 ;     C9-    C7-   C10-   C12
  1721  1720  1723  1727   9   0.00   0.65084   3 ;     C9-    C8-   C11-   H15
  1721  1720  1723  1729   9   0.00   0.65084   3 ;     C9-    C8-   C11-    O6
  1721  1720  1723  1739   9   0.00   0.65084   3 ;     C9-    C8-   C11-   O10
  1721  1720  1735  1736   9   0.00   0.00000   0 ;     C9-    C8-    O8-   H20
  1722  1719  1721  1724   9   0.00   0.65084   3 ;    C10-    C7-    C9-   H12
  1722  1719  1721  1737   9   0.00   0.87864   3 ;    C10-    C7-    C9-    O9
  1722  1729  1723  1727   9   0.00   1.60387   3 ;    C10-    O6-   C11-   H15
  1722  1729  1723  1739   9   0.00   5.18816   2 ;    C10-    O6-   C11-   O10
  1722  1729  1723  1739   9   180.00   0.00000   3 ;    C10-    O6-   C11-   O10
  1722  1729  1723  1739   9   180.00   4.05848   1 ;    C10-    O6-   C11-   O10
  1722  1730  1733  1734   9   0.00   0.00000   0 ;    C10-   C12-    O7-   H19
  1723  1720  1721  1724   9   0.00   0.65084   3 ;    C11-    C8-    C9-   H12
  1723  1720  1721  1737   9   0.00   0.87864   3 ;    C11-    C8-    C9-    O9
  1723  1720  1735  1736   9   0.00   0.00000   0 ;    C11-    C8-    O8-   H20
  1723  1729  1722  1726   9   0.00   1.41001   3 ;    C11-    O6-   C10-   H14
  1723  1729  1722  1730   9   0.00   0.00000   0 ;    C11-    O6-   C10-   C12
  1723  1729  1722  1730   9   0.00   0.66944   2 ;    C11-    O6-   C10-   C12
  1723  1729  1722  1730   9   0.00   1.00416   3 ;    C11-    O6-   C10-   C12
  1723  1739  1740  1742   9   0.00   0.00000   0 ;    C11-   O10-   C13-   C15
  1723  1739  1740  1742   9   0.00   0.66944   2 ;    C11-   O10-   C13-   C15
  1723  1739  1740  1742   9   0.00   1.00416   3 ;    C11-   O10-   C13-   C15
  1723  1739  1740  1743   9   0.00   0.00000   0 ;    C11-   O10-   C13-   C16
  1723  1739  1740  1743   9   0.00   0.66944   2 ;    C11-   O10-   C13-   C16
  1723  1739  1740  1743   9   0.00   1.00416   3 ;    C11-   O10-   C13-   C16
  1723  1739  1740  1746   9   0.00   1.41001   3 ;    C11-   O10-   C13-   H23
  1724  1721  1719  1728   9   0.00   0.65084   3 ;    H12-    C9-    C7-   H16
  1724  1721  1720  1725   9   0.00   0.65084   3 ;    H12-    C9-    C8-   H13
  1724  1721  1720  1735   9   0.00   0.00000   0 ;    H12-    C9-    C8-    O8
  1724  1721  1720  1735   9   0.00   1.04600   1 ;    H12-    C9-    C8-    O8
  1724  1721  1737  1738   9   0.00   0.47279   3 ;    H12-    C9-    O9-   H21
  1725  1720  1721  1737   9   0.00   0.00000   0 ;    H13-    C8-    C9-    O9
  1725  1720  1721  1737   9   0.00   1.04600   1 ;    H13-    C8-    C9-    O9
  1725  1720  1723  1727   9   0.00   0.65084   3 ;    H13-    C8-   C11-   H15
  1725  1720  1723  1729   9   0.00   0.00000   0 ;    H13-    C8-   C11-    O6
  1725  1720  1723  1729   9   0.00   1.04600   1 ;    H13-    C8-   C11-    O6
  1725  1720  1723  1739   9   0.00   0.00000   0 ;    H13-    C8-   C11-   O10
  1725  1720  1723  1739   9   0.00   1.04600   1 ;    H13-    C8-   C11-   O10
  1725  1720  1735  1736   9   0.00   0.47279   3 ;    H13-    C8-    O8-   H20
  1726  1722  1719  1728   9   0.00   0.65084   3 ;    H14-   C10-    C7-   H16
  1726  1722  1730  1731   9   0.00   0.65084   3 ;    H14-   C10-   C12-   H17
  1726  1722  1730  1732   9   0.00   0.65084   3 ;    H14-   C10-   C12-   H18
  1726  1722  1730  1733   9   0.00   0.00000   0 ;    H14-   C10-   C12-    O7
  1726  1722  1730  1733   9   0.00   1.04600   1 ;    H14-   C10-   C12-    O7
  1727  1723  1720  1735   9   0.00   0.65084   3 ;    H15-   C11-    C8-    O8
  1727  1723  1739  1740   9   0.00   1.60387   3 ;    H15-   C11-   O10-   C13
  1728  1719  1721  1737   9   0.00   0.00000   0 ;    H16-    C7-    C9-    O9
  1728  1719  1721  1737   9   0.00   1.04600   1 ;    H16-    C7-    C9-    O9
  1728  1719  1722  1729   9   0.00   0.00000   0 ;    H16-    C7-   C10-    O6
  1728  1719  1722  1729   9   0.00   1.04600   1 ;    H16-    C7-   C10-    O6
  1728  1719  1722  1730   9   0.00   0.65084   3 ;    H16-    C7-   C10-   C12
  1729  1722  1730  1731   9   0.00   0.00000   0 ;     O6-   C10-   C12-   H17
  1729  1722  1730  1731   9   0.00   1.04600   1 ;     O6-   C10-   C12-   H17
  1729  1722  1730  1732   9   0.00   0.00000   0 ;     O6-   C10-   C12-   H18
  1729  1722  1730  1732   9   0.00   1.04600   1 ;     O6-   C10-   C12-   H18
  1729  1722  1730  1733   9   0.00   0.00000   0 ;     O6-   C10-   C12-    O7
  1729  1722  1730  1733   9   0.00   4.22584   3 ;     O6-   C10-   C12-    O7
  1729  1722  1730  1733   9   180.00   0.08368   1 ;     O6-   C10-   C12-    O7
  1729  1723  1720  1735   9   0.00   0.00000   0 ;     O6-   C11-    C8-    O8
  1729  1723  1720  1735   9   0.00   4.22584   3 ;     O6-   C11-    C8-    O8
  1729  1723  1720  1735   9   180.00   0.08368   1 ;     O6-   C11-    C8-    O8
  1729  1723  1739  1740   9   0.00   5.18816   2 ;     O6-   C11-   O10-   C13
  1729  1723  1739  1740   9   180.00   0.00000   3 ;     O6-   C11-   O10-   C13
  1729  1723  1739  1740   9   180.00   4.05848   1 ;     O6-   C11-   O10-   C13
  1731  1730  1733  1734   9   0.00   0.47279   3 ;    H17-   C12-    O7-   H19
  1732  1730  1733  1734   9   0.00   0.47279   3 ;    H18-   C12-    O7-   H19
  1735  1720  1721  1737   9   0.00   3.76560   3 ;     O8-    C8-    C9-    O9
  1735  1720  1721  1737   9   0.00   4.72792   2 ;     O8-    C8-    C9-    O9
  1735  1720  1723  1739   9   0.00   0.00000   0 ;     O8-    C8-   C11-   O10
  1735  1720  1723  1739   9   0.00   4.22584   3 ;     O8-    C8-   C11-   O10
  1735  1720  1723  1739   9   180.00   0.08368   1 ;     O8-    C8-   C11-   O10
  1739  1740  1742  1749   9   0.00   0.00000   0 ;    O10-   C13-   C15-   H26
  1739  1740  1742  1749   9   0.00   1.04600   1 ;    O10-   C13-   C15-   H26
  1739  1740  1742  1754   9   0.00   0.00000   0 ;    O10-   C13-   C15-   O13
  1739  1740  1742  1754   9   180.00   0.00000   2 ;    O10-   C13-   C15-   O13
  1739  1740  1742  1754   9   180.00   0.71128   1 ;    O10-   C13-   C15-   O13
  1739  1740  1742  1755   9   0.00   0.65084   3 ;    O10-   C13-   C15-   C18
  1739  1740  1743  1744   9   0.00   0.65084   3 ;    O10-   C13-   C16-   C17
  1739  1740  1743  1747   9   0.00   0.00000   0 ;    O10-   C13-   C16-   H24
  1739  1740  1743  1747   9   0.00   1.04600   1 ;    O10-   C13-   C16-   H24
  1739  1740  1743  1750   9   0.00   0.00000   0 ;    O10-   C13-   C16-   O11
  1739  1740  1743  1750   9   0.00   4.22584   3 ;    O10-   C13-   C16-   O11
  1739  1740  1743  1750   9   180.00   0.08368   1 ;    O10-   C13-   C16-   O11
  1740  1742  1754  1741   9   0.00   0.00000   0 ;    C13-   C15-   O13-   C14
  1740  1742  1754  1741   9   0.00   0.66944   2 ;    C13-   C15-   O13-   C14
  1740  1742  1754  1741   9   0.00   1.00416   3 ;    C13-   C15-   O13-   C14
  1740  1742  1755  1756   9   0.00   0.65084   3 ;    C13-   C15-   C18-   H29
  1740  1742  1755  1757   9   0.00   0.65084   3 ;    C13-   C15-   C18-   H30
  1740  1742  1755  1758   9   0.00   0.87864   3 ;    C13-   C15-   C18-   O14
  1740  1743  1744  1741   9   0.00   0.46024   1 ;    C13-   C16-   C17-   C14
  1740  1743  1744  1741   9   0.00   0.54392   3 ;    C13-   C16-   C17-   C14
  1740  1743  1744  1741   9   180.00   1.21336   2 ;    C13-   C16-   C17-   C14
  1740  1743  1744  1748   9   0.00   0.65084   3 ;    C13-   C16-   C17-   H25
  1740  1743  1744  1752   9   0.00   0.87864   3 ;    C13-   C16-   C17-   O12
  1740  1743  1750  1751   9   0.00   0.00000   0 ;    C13-   C16-   O11-   H27
  1741  1744  1743  1747   9   0.00   0.65084   3 ;    C14-   C17-   C16-   H24
  1741  1744  1743  1750   9   0.00   0.87864   3 ;    C14-   C17-   C16-   O11
  1741  1744  1752  1753   9   0.00   0.00000   0 ;    C14-   C17-   O12-   H28
  1741  1754  1742  1749   9   0.00   1.41001   3 ;    C14-   O13-   C15-   H26
  1741  1754  1742  1755   9   0.00   0.00000   0 ;    C14-   O13-   C15-   C18
  1741  1754  1742  1755   9   0.00   0.66944   2 ;    C14-   O13-   C15-   C18
  1741  1754  1742  1755   9   0.00   1.00416   3 ;    C14-   O13-   C15-   C18
  1741  1760  1761  1763   9   0.00   0.00000   0 ;    C14-   O15-   C19-   C21
  1741  1760  1761  1763   9   0.00   0.66944   2 ;    C14-   O15-   C19-   C21
  1741  1760  1761  1763   9   0.00   1.00416   3 ;    C14-   O15-   C19-   C21
  1741  1760  1761  1764   9   0.00   0.00000   0 ;    C14-   O15-   C19-   C22
  1741  1760  1761  1764   9   0.00   0.66944   2 ;    C14-   O15-   C19-   C22
  1741  1760  1761  1764   9   0.00   1.00416   3 ;    C14-   O15-   C19-   C22
  1741  1760  1761  1770   9   0.00   1.41001   3 ;    C14-   O15-   C19-   H36
  1742  1740  1743  1744   9   0.00   0.46024   1 ;    C15-   C13-   C16-   C17
  1742  1740  1743  1744   9   0.00   0.54392   3 ;    C15-   C13-   C16-   C17
  1742  1740  1743  1744   9   180.00   1.21336   2 ;    C15-   C13-   C16-   C17
  1742  1740  1743  1747   9   0.00   0.65084   3 ;    C15-   C13-   C16-   H24
  1742  1740  1743  1750   9   0.00   0.87864   3 ;    C15-   C13-   C16-   O11
  1742  1754  1741  1744   9   0.00   0.00000   0 ;    C15-   O13-   C14-   C17
  1742  1754  1741  1744   9   0.00   0.66944   2 ;    C15-   O13-   C14-   C17
  1742  1754  1741  1744   9   0.00   1.00416   3 ;    C15-   O13-   C14-   C17
  1742  1754  1741  1745   9   0.00   1.60387   3 ;    C15-   O13-   C14-   H22
  1742  1754  1741  1760   9   0.00   5.18816   2 ;    C15-   O13-   C14-   O15
  1742  1754  1741  1760   9   180.00   0.00000   3 ;    C15-   O13-   C14-   O15
  1742  1754  1741  1760   9   180.00   4.05848   1 ;    C15-   O13-   C14-   O15
  1742  1755  1758  1759   9   0.00   0.00000   0 ;    C15-   C18-   O14-   H31
  1743  1740  1742  1749   9   0.00   0.65084   3 ;    C16-   C13-   C15-   H26
  1743  1740  1742  1754   9   0.00   0.65084   3 ;    C16-   C13-   C15-   O13
  1743  1740  1742  1755   9   0.00   0.46024   1 ;    C16-   C13-   C15-   C18
  1743  1740  1742  1755   9   0.00   0.54392   3 ;    C16-   C13-   C15-   C18
  1743  1740  1742  1755   9   180.00   1.21336   2 ;    C16-   C13-   C15-   C18
  1743  1744  1741  1745   9   0.00   0.65084   3 ;    C16-   C17-   C14-   H22
  1743  1744  1741  1754   9   0.00   0.65084   3 ;    C16-   C17-   C14-   O13
  1743  1744  1741  1760   9   0.00   0.65084   3 ;    C16-   C17-   C14-   O15
  1743  1744  1752  1753   9   0.00   0.00000   0 ;    C16-   C17-   O12-   H28
  1744  1741  1760  1761   9   0.00   0.00000   0 ;    C17-   C14-   O15-   C19
  1744  1741  1760  1761   9   0.00   0.66944   2 ;    C17-   C14-   O15-   C19
  1744  1741  1760  1761   9   0.00   1.00416   3 ;    C17-   C14-   O15-   C19
  1744  1743  1740  1746   9   0.00   0.65084   3 ;    C17-   C16-   C13-   H23
  1744  1743  1750  1751   9   0.00   0.00000   0 ;    C17-   C16-   O11-   H27
  1745  1741  1744  1748   9   0.00   0.65084   3 ;    H22-   C14-   C17-   H25
  1745  1741  1744  1752   9   0.00   0.65084   3 ;    H22-   C14-   C17-   O12
  1745  1741  1760  1761   9   0.00   1.60387   3 ;    H22-   C14-   O15-   C19
  1746  1740  1742  1749   9   0.00   0.65084   3 ;    H23-   C13-   C15-   H26
  1746  1740  1742  1754   9   0.00   0.00000   0 ;    H23-   C13-   C15-   O13
  1746  1740  1742  1754   9   0.00   1.04600   1 ;    H23-   C13-   C15-   O13
  1746  1740  1742  1755   9   0.00   0.65084   3 ;    H23-   C13-   C15-   C18
  1746  1740  1743  1747   9   0.00   0.65084   3 ;    H23-   C13-   C16-   H24
  1746  1740  1743  1750   9   0.00   0.00000   0 ;    H23-   C13-   C16-   O11
  1746  1740  1743  1750   9   0.00   1.04600   1 ;    H23-   C13-   C16-   O11
  1747  1743  1744  1748   9   0.00   0.65084   3 ;    H24-   C16-   C17-   H25
  1747  1743  1744  1752   9   0.00   0.00000   0 ;    H24-   C16-   C17-   O12
  1747  1743  1744  1752   9   0.00   1.04600   1 ;    H24-   C16-   C17-   O12
  1747  1743  1750  1751   9   0.00   0.47279   3 ;    H24-   C16-   O11-   H27
  1748  1744  1741  1754   9   0.00   0.00000   0 ;    H25-   C17-   C14-   O13
  1748  1744  1741  1754   9   0.00   1.04600   1 ;    H25-   C17-   C14-   O13
  1748  1744  1741  1760   9   0.00   0.00000   0 ;    H25-   C17-   C14-   O15
  1748  1744  1741  1760   9   0.00   1.04600   1 ;    H25-   C17-   C14-   O15
  1748  1744  1743  1750   9   0.00   0.00000   0 ;    H25-   C17-   C16-   O11
  1748  1744  1743  1750   9   0.00   1.04600   1 ;    H25-   C17-   C16-   O11
  1748  1744  1752  1753   9   0.00   0.47279   3 ;    H25-   C17-   O12-   H28
  1749  1742  1755  1756   9   0.00   0.65084   3 ;    H26-   C15-   C18-   H29
  1749  1742  1755  1757   9   0.00   0.65084   3 ;    H26-   C15-   C18-   H30
  1749  1742  1755  1758   9   0.00   0.00000   0 ;    H26-   C15-   C18-   O14
  1749  1742  1755  1758   9   0.00   1.04600   1 ;    H26-   C15-   C18-   O14
  1750  1743  1744  1752   9   0.00   3.76560   3 ;    O11-   C16-   C17-   O12
  1750  1743  1744  1752   9   0.00   4.72792   2 ;    O11-   C16-   C17-   O12
  1752  1744  1741  1754   9   0.00   0.00000   0 ;    O12-   C17-   C14-   O13
  1752  1744  1741  1754   9   0.00   4.22584   3 ;    O12-   C17-   C14-   O13
  1752  1744  1741  1754   9   180.00   0.08368   1 ;    O12-   C17-   C14-   O13
  1752  1744  1741  1760   9   0.00   0.00000   0 ;    O12-   C17-   C14-   O15
  1752  1744  1741  1760   9   0.00   4.22584   3 ;    O12-   C17-   C14-   O15
  1752  1744  1741  1760   9   180.00   0.08368   1 ;    O12-   C17-   C14-   O15
  1754  1741  1760  1761   9   0.00   5.18816   2 ;    O13-   C14-   O15-   C19
  1754  1741  1760  1761   9   180.00   0.00000   3 ;    O13-   C14-   O15-   C19
  1754  1741  1760  1761   9   180.00   4.05848   1 ;    O13-   C14-   O15-   C19
  1754  1742  1755  1756   9   0.00   0.00000   0 ;    O13-   C15-   C18-   H29
  1754  1742  1755  1756   9   0.00   1.04600   1 ;    O13-   C15-   C18-   H29
  1754  1742  1755  1757   9   0.00   0.00000   0 ;    O13-   C15-   C18-   H30
  1754  1742  1755  1757   9   0.00   1.04600   1 ;    O13-   C15-   C18-   H30
  1754  1742  1755  1758   9   0.00   0.00000   0 ;    O13-   C15-   C18-   O14
  1754  1742  1755  1758   9   0.00   4.22584   3 ;    O13-   C15-   C18-   O14
  1754  1742  1755  1758   9   180.00   0.08368   1 ;    O13-   C15-   C18-   O14
  1756  1755  1758  1759   9   0.00   0.47279   3 ;    H29-   C18-   O14-   H31
  1757  1755  1758  1759   9   0.00   0.47279   3 ;    H30-   C18-   O14-   H31
  1760  1761  1763  1762   9   0.00   0.65084   3 ;    O15-   C19-   C21-   C20
  1760  1761  1763  1766   9   0.00   0.00000   0 ;    O15-   C19-   C21-   H32
  1760  1761  1763  1766   9   0.00   1.04600   1 ;    O15-   C19-   C21-   H32
  1760  1761  1763  1779   9   0.00   0.00000   0 ;    O15-   C19-   C21-   O19
  1760  1761  1763  1779   9   0.00   4.22584   3 ;    O15-   C19-   C21-   O19
  1760  1761  1763  1779   9   180.00   0.08368   1 ;    O15-   C19-   C21-   O19
  1760  1761  1764  1768   9   0.00   0.00000   0 ;    O15-   C19-   C22-   H34
  1760  1761  1764  1768   9   0.00   1.04600   1 ;    O15-   C19-   C22-   H34
  1760  1761  1764  1771   9   0.00   0.00000   0 ;    O15-   C19-   C22-   O16
  1760  1761  1764  1771   9   180.00   0.00000   2 ;    O15-   C19-   C22-   O16
  1760  1761  1764  1771   9   180.00   0.71128   1 ;    O15-   C19-   C22-   O16
  1760  1761  1764  1772   9   0.00   0.65084   3 ;    O15-   C19-   C22-   C24
  1761  1763  1762  1765   9   0.00   0.46024   1 ;    C19-   C21-   C20-   C23
  1761  1763  1762  1765   9   0.00   0.54392   3 ;    C19-   C21-   C20-   C23
  1761  1763  1762  1765   9   180.00   1.21336   2 ;    C19-   C21-   C20-   C23
  1761  1763  1762  1767   9   0.00   0.65084   3 ;    C19-   C21-   C20-   H33
  1761  1763  1762  1777   9   0.00   0.87864   3 ;    C19-   C21-   C20-   O18
  1761  1763  1779  1780   9   0.00   0.00000   0 ;    C19-   C21-   O19-   H41
  1761  1764  1771  1765   9   0.00   0.00000   0 ;    C19-   C22-   O16-   C23
  1761  1764  1771  1765   9   0.00   0.66944   2 ;    C19-   C22-   O16-   C23
  1761  1764  1771  1765   9   0.00   1.00416   3 ;    C19-   C22-   O16-   C23
  1761  1764  1772  1773   9   0.00   0.65084   3 ;    C19-   C22-   C24-   H37
  1761  1764  1772  1774   9   0.00   0.65084   3 ;    C19-   C22-   C24-   H38
  1761  1764  1772  1775   9   0.00   0.87864   3 ;    C19-   C22-   C24-   O17
  1762  1763  1761  1764   9   0.00   0.46024   1 ;    C20-   C21-   C19-   C22
  1762  1763  1761  1764   9   0.00   0.54392   3 ;    C20-   C21-   C19-   C22
  1762  1763  1761  1764   9   180.00   1.21336   2 ;    C20-   C21-   C19-   C22
  1762  1763  1761  1770   9   0.00   0.65084   3 ;    C20-   C21-   C19-   H36
  1762  1763  1779  1780   9   0.00   0.00000   0 ;    C20-   C21-   O19-   H41
  1762  1765  1771  1764   9   0.00   0.00000   0 ;    C20-   C23-   O16-   C22
  1762  1765  1771  1764   9   0.00   0.66944   2 ;    C20-   C23-   O16-   C22
  1762  1765  1771  1764   9   0.00   1.00416   3 ;    C20-   C23-   O16-   C22
  1762  1765  1781  1782   9   0.00   0.00000   0 ;    C20-   C23-   O20-   C25
  1762  1765  1781  1782   9   0.00   0.66944   2 ;    C20-   C23-   O20-   C25
  1762  1765  1781  1782   9   0.00   1.00416   3 ;    C20-   C23-   O20-   C25
  1763  1761  1764  1768   9   0.00   0.65084   3 ;    C21-   C19-   C22-   H34
  1763  1761  1764  1771   9   0.00   0.65084   3 ;    C21-   C19-   C22-   O16
  1763  1761  1764  1772   9   0.00   0.46024   1 ;    C21-   C19-   C22-   C24
  1763  1761  1764  1772   9   0.00   0.54392   3 ;    C21-   C19-   C22-   C24
  1763  1761  1764  1772   9   180.00   1.21336   2 ;    C21-   C19-   C22-   C24
  1763  1762  1765  1769   9   0.00   0.65084   3 ;    C21-   C20-   C23-   H35
  1763  1762  1765  1771   9   0.00   0.65084   3 ;    C21-   C20-   C23-   O16
  1763  1762  1765  1781   9   0.00   0.65084   3 ;    C21-   C20-   C23-   O20
  1763  1762  1777  1778   9   0.00   0.00000   0 ;    C21-   C20-   O18-   H40
  1764  1761  1763  1766   9   0.00   0.65084   3 ;    C22-   C19-   C21-   H32
  1764  1761  1763  1779   9   0.00   0.87864   3 ;    C22-   C19-   C21-   O19
  1764  1771  1765  1769   9   0.00   1.60387   3 ;    C22-   O16-   C23-   H35
  1764  1771  1765  1781   9   0.00   5.18816   2 ;    C22-   O16-   C23-   O20
  1764  1771  1765  1781   9   180.00   0.00000   3 ;    C22-   O16-   C23-   O20
  1764  1771  1765  1781   9   180.00   4.05848   1 ;    C22-   O16-   C23-   O20
  1764  1772  1775  1776   9   0.00   0.00000   0 ;    C22-   C24-   O17-   H39
  1765  1762  1763  1766   9   0.00   0.65084   3 ;    C23-   C20-   C21-   H32
  1765  1762  1763  1779   9   0.00   0.87864   3 ;    C23-   C20-   C21-   O19
  1765  1762  1777  1778   9   0.00   0.00000   0 ;    C23-   C20-   O18-   H40
  1765  1771  1764  1768   9   0.00   1.41001   3 ;    C23-   O16-   C22-   H34
  1765  1771  1764  1772   9   0.00   0.00000   0 ;    C23-   O16-   C22-   C24
  1765  1771  1764  1772   9   0.00   0.66944   2 ;    C23-   O16-   C22-   C24
  1765  1771  1764  1772   9   0.00   1.00416   3 ;    C23-   O16-   C22-   C24
  1765  1781  1782  1784   9   0.00   0.00000   0 ;    C23-   O20-   C25-   C27
  1765  1781  1782  1784   9   0.00   0.66944   2 ;    C23-   O20-   C25-   C27
  1765  1781  1782  1784   9   0.00   1.00416   3 ;    C23-   O20-   C25-   C27
  1765  1781  1782  1785   9   0.00   0.00000   0 ;    C23-   O20-   C25-   C28
  1765  1781  1782  1785   9   0.00   0.66944   2 ;    C23-   O20-   C25-   C28
  1765  1781  1782  1785   9   0.00   1.00416   3 ;    C23-   O20-   C25-   C28
  1765  1781  1782  1788   9   0.00   1.41001   3 ;    C23-   O20-   C25-   H43
  1766  1763  1761  1770   9   0.00   0.65084   3 ;    H32-   C21-   C19-   H36
  1766  1763  1762  1767   9   0.00   0.65084   3 ;    H32-   C21-   C20-   H33
  1766  1763  1762  1777   9   0.00   0.00000   0 ;    H32-   C21-   C20-   O18
  1766  1763  1762  1777   9   0.00   1.04600   1 ;    H32-   C21-   C20-   O18
  1766  1763  1779  1780   9   0.00   0.47279   3 ;    H32-   C21-   O19-   H41
  1767  1762  1763  1779   9   0.00   0.00000   0 ;    H33-   C20-   C21-   O19
  1767  1762  1763  1779   9   0.00   1.04600   1 ;    H33-   C20-   C21-   O19
  1767  1762  1765  1769   9   0.00   0.65084   3 ;    H33-   C20-   C23-   H35
  1767  1762  1765  1771   9   0.00   0.00000   0 ;    H33-   C20-   C23-   O16
  1767  1762  1765  1771   9   0.00   1.04600   1 ;    H33-   C20-   C23-   O16
  1767  1762  1765  1781   9   0.00   0.00000   0 ;    H33-   C20-   C23-   O20
  1767  1762  1765  1781   9   0.00   1.04600   1 ;    H33-   C20-   C23-   O20
  1767  1762  1777  1778   9   0.00   0.47279   3 ;    H33-   C20-   O18-   H40
  1768  1764  1761  1770   9   0.00   0.65084   3 ;    H34-   C22-   C19-   H36
  1768  1764  1772  1773   9   0.00   0.65084   3 ;    H34-   C22-   C24-   H37
  1768  1764  1772  1774   9   0.00   0.65084   3 ;    H34-   C22-   C24-   H38
  1768  1764  1772  1775   9   0.00   0.00000   0 ;    H34-   C22-   C24-   O17
  1768  1764  1772  1775   9   0.00   1.04600   1 ;    H34-   C22-   C24-   O17
  1769  1765  1762  1777   9   0.00   0.65084   3 ;    H35-   C23-   C20-   O18
  1769  1765  1781  1782   9   0.00   1.60387   3 ;    H35-   C23-   O20-   C25
  1770  1761  1763  1779   9   0.00   0.00000   0 ;    H36-   C19-   C21-   O19
  1770  1761  1763  1779   9   0.00   1.04600   1 ;    H36-   C19-   C21-   O19
  1770  1761  1764  1771   9   0.00   0.00000   0 ;    H36-   C19-   C22-   O16
  1770  1761  1764  1771   9   0.00   1.04600   1 ;    H36-   C19-   C22-   O16
  1770  1761  1764  1772   9   0.00   0.65084   3 ;    H36-   C19-   C22-   C24
  1771  1764  1772  1773   9   0.00   0.00000   0 ;    O16-   C22-   C24-   H37
  1771  1764  1772  1773   9   0.00   1.04600   1 ;    O16-   C22-   C24-   H37
  1771  1764  1772  1774   9   0.00   0.00000   0 ;    O16-   C22-   C24-   H38
  1771  1764  1772  1774   9   0.00   1.04600   1 ;    O16-   C22-   C24-   H38
  1771  1764  1772  1775   9   0.00   0.00000   0 ;    O16-   C22-   C24-   O17
  1771  1764  1772  1775   9   0.00   4.22584   3 ;    O16-   C22-   C24-   O17
  1771  1764  1772  1775   9   180.00   0.08368   1 ;    O16-   C22-   C24-   O17
  1771  1765  1762  1777   9   0.00   0.00000   0 ;    O16-   C23-   C20-   O18
  1771  1765  1762  1777   9   0.00   4.22584   3 ;    O16-   C23-   C20-   O18
  1771  1765  1762  1777   9   180.00   0.08368   1 ;    O16-   C23-   C20-   O18
  1771  1765  1781  1782   9   0.00   5.18816   2 ;    O16-   C23-   O20-   C25
  1771  1765  1781  1782   9   180.00   0.00000   3 ;    O16-   C23-   O20-   C25
  1771  1765  1781  1782   9   180.00   4.05848   1 ;    O16-   C23-   O20-   C25
  1773  1772  1775  1776   9   0.00   0.47279   3 ;    H37-   C24-   O17-   H39
  1774  1772  1775  1776   9   0.00   0.47279   3 ;    H38-   C24-   O17-   H39
  1777  1762  1763  1779   9   0.00   3.76560   3 ;    O18-   C20-   C21-   O19
  1777  1762  1763  1779   9   0.00   4.72792   2 ;    O18-   C20-   C21-   O19
  1777  1762  1765  1781   9   0.00   0.00000   0 ;    O18-   C20-   C23-   O20
  1777  1762  1765  1781   9   0.00   4.22584   3 ;    O18-   C20-   C23-   O20
  1777  1762  1765  1781   9   180.00   0.08368   1 ;    O18-   C20-   C23-   O20
  1781  1782  1784  1791   9   0.00   0.00000   0 ;    O20-   C25-   C27-   H46
  1781  1782  1784  1791   9   0.00   1.04600   1 ;    O20-   C25-   C27-   H46
  1781  1782  1784  1796   9   0.00   0.00000   0 ;    O20-   C25-   C27-   O23
  1781  1782  1784  1796   9   180.00   0.00000   2 ;    O20-   C25-   C27-   O23
  1781  1782  1784  1796   9   180.00   0.71128   1 ;    O20-   C25-   C27-   O23
  1781  1782  1784  1797   9   0.00   0.65084   3 ;    O20-   C25-   C27-   C30
  1781  1782  1785  1786   9   0.00   0.65084   3 ;    O20-   C25-   C28-   C29
  1781  1782  1785  1789   9   0.00   0.00000   0 ;    O20-   C25-   C28-   H44
  1781  1782  1785  1789   9   0.00   1.04600   1 ;    O20-   C25-   C28-   H44
  1781  1782  1785  1792   9   0.00   0.00000   0 ;    O20-   C25-   C28-   O21
  1781  1782  1785  1792   9   0.00   4.22584   3 ;    O20-   C25-   C28-   O21
  1781  1782  1785  1792   9   180.00   0.08368   1 ;    O20-   C25-   C28-   O21
  1782  1784  1796  1783   9   0.00   0.00000   0 ;    C25-   C27-   O23-   C26
  1782  1784  1796  1783   9   0.00   0.66944   2 ;    C25-   C27-   O23-   C26
  1782  1784  1796  1783   9   0.00   1.00416   3 ;    C25-   C27-   O23-   C26
  1782  1784  1797  1798   9   0.00   0.65084   3 ;    C25-   C27-   C30-   H49
  1782  1784  1797  1799   9   0.00   0.65084   3 ;    C25-   C27-   C30-   H50
  1782  1784  1797  1800   9   0.00   0.87864   3 ;    C25-   C27-   C30-   O24
  1782  1785  1786  1783   9   0.00   0.46024   1 ;    C25-   C28-   C29-   C26
  1782  1785  1786  1783   9   0.00   0.54392   3 ;    C25-   C28-   C29-   C26
  1782  1785  1786  1783   9   180.00   1.21336   2 ;    C25-   C28-   C29-   C26
  1782  1785  1786  1790   9   0.00   0.65084   3 ;    C25-   C28-   C29-   H45
  1782  1785  1786  1794   9   0.00   0.87864   3 ;    C25-   C28-   C29-   O22
  1782  1785  1792  1793   9   0.00   0.00000   0 ;    C25-   C28-   O21-   H47
  1783  1786  1785  1789   9   0.00   0.65084   3 ;    C26-   C29-   C28-   H44
  1783  1786  1785  1792   9   0.00   0.87864   3 ;    C26-   C29-   C28-   O21
  1783  1786  1794  1795   9   0.00   0.00000   0 ;    C26-   C29-   O22-   H48
  1783  1796  1784  1791   9   0.00   1.41001   3 ;    C26-   O23-   C27-   H46
  1783  1796  1784  1797   9   0.00   0.00000   0 ;    C26-   O23-   C27-   C30
  1783  1796  1784  1797   9   0.00   0.66944   2 ;    C26-   O23-   C27-   C30
  1783  1796  1784  1797   9   0.00   1.00416   3 ;    C26-   O23-   C27-   C30
  1783  1802  1803  1805   9   0.00   0.00000   0 ;    C26-   O25-   C31-   C33
  1783  1802  1803  1805   9   0.00   0.66944   2 ;    C26-   O25-   C31-   C33
  1783  1802  1803  1805   9   0.00   1.00416   3 ;    C26-   O25-   C31-   C33
  1783  1802  1803  1806   9   0.00   0.00000   0 ;    C26-   O25-   C31-   C34
  1783  1802  1803  1806   9   0.00   0.66944   2 ;    C26-   O25-   C31-   C34
  1783  1802  1803  1806   9   0.00   1.00416   3 ;    C26-   O25-   C31-   C34
  1783  1802  1803  1812   9   0.00   1.41001   3 ;    C26-   O25-   C31-   H56
  1784  1782  1785  1786   9   0.00   0.46024   1 ;    C27-   C25-   C28-   C29
  1784  1782  1785  1786   9   0.00   0.54392   3 ;    C27-   C25-   C28-   C29
  1784  1782  1785  1786   9   180.00   1.21336   2 ;    C27-   C25-   C28-   C29
  1784  1782  1785  1789   9   0.00   0.65084   3 ;    C27-   C25-   C28-   H44
  1784  1782  1785  1792   9   0.00   0.87864   3 ;    C27-   C25-   C28-   O21
  1784  1796  1783  1786   9   0.00   0.00000   0 ;    C27-   O23-   C26-   C29
  1784  1796  1783  1786   9   0.00   0.66944   2 ;    C27-   O23-   C26-   C29
  1784  1796  1783  1786   9   0.00   1.00416   3 ;    C27-   O23-   C26-   C29
  1784  1796  1783  1787   9   0.00   1.60387   3 ;    C27-   O23-   C26-   H42
  1784  1796  1783  1802   9   0.00   5.18816   2 ;    C27-   O23-   C26-   O25
  1784  1796  1783  1802   9   180.00   0.00000   3 ;    C27-   O23-   C26-   O25
  1784  1796  1783  1802   9   180.00   4.05848   1 ;    C27-   O23-   C26-   O25
  1784  1797  1800  1801   9   0.00   0.00000   0 ;    C27-   C30-   O24-   H51
  1785  1782  1784  1791   9   0.00   0.65084   3 ;    C28-   C25-   C27-   H46
  1785  1782  1784  1796   9   0.00   0.65084   3 ;    C28-   C25-   C27-   O23
  1785  1782  1784  1797   9   0.00   0.46024   1 ;    C28-   C25-   C27-   C30
  1785  1782  1784  1797   9   0.00   0.54392   3 ;    C28-   C25-   C27-   C30
  1785  1782  1784  1797   9   180.00   1.21336   2 ;    C28-   C25-   C27-   C30
  1785  1786  1783  1787   9   0.00   0.65084   3 ;    C28-   C29-   C26-   H42
  1785  1786  1783  1796   9   0.00   0.65084   3 ;    C28-   C29-   C26-   O23
  1785  1786  1783  1802   9   0.00   0.65084   3 ;    C28-   C29-   C26-   O25
  1785  1786  1794  1795   9   0.00   0.00000   0 ;    C28-   C29-   O22-   H48
  1786  1783  1802  1803   9   0.00   0.00000   0 ;    C29-   C26-   O25-   C31
  1786  1783  1802  1803   9   0.00   0.66944   2 ;    C29-   C26-   O25-   C31
  1786  1783  1802  1803   9   0.00   1.00416   3 ;    C29-   C26-   O25-   C31
  1786  1785  1782  1788   9   0.00   0.65084   3 ;    C29-   C28-   C25-   H43
  1786  1785  1792  1793   9   0.00   0.00000   0 ;    C29-   C28-   O21-   H47
  1787  1783  1786  1790   9   0.00   0.65084   3 ;    H42-   C26-   C29-   H45
  1787  1783  1786  1794   9   0.00   0.65084   3 ;    H42-   C26-   C29-   O22
  1787  1783  1802  1803   9   0.00   1.60387   3 ;    H42-   C26-   O25-   C31
  1788  1782  1784  1791   9   0.00   0.65084   3 ;    H43-   C25-   C27-   H46
  1788  1782  1784  1796   9   0.00   0.00000   0 ;    H43-   C25-   C27-   O23
  1788  1782  1784  1796   9   0.00   1.04600   1 ;    H43-   C25-   C27-   O23
  1788  1782  1784  1797   9   0.00   0.65084   3 ;    H43-   C25-   C27-   C30
  1788  1782  1785  1789   9   0.00   0.65084   3 ;    H43-   C25-   C28-   H44
  1788  1782  1785  1792   9   0.00   0.00000   0 ;    H43-   C25-   C28-   O21
  1788  1782  1785  1792   9   0.00   1.04600   1 ;    H43-   C25-   C28-   O21
  1789  1785  1786  1790   9   0.00   0.65084   3 ;    H44-   C28-   C29-   H45
  1789  1785  1786  1794   9   0.00   0.00000   0 ;    H44-   C28-   C29-   O22
  1789  1785  1786  1794   9   0.00   1.04600   1 ;    H44-   C28-   C29-   O22
  1789  1785  1792  1793   9   0.00   0.47279   3 ;    H44-   C28-   O21-   H47
  1790  1786  1783  1796   9   0.00   0.00000   0 ;    H45-   C29-   C26-   O23
  1790  1786  1783  1796   9   0.00   1.04600   1 ;    H45-   C29-   C26-   O23
  1790  1786  1783  1802   9   0.00   0.00000   0 ;    H45-   C29-   C26-   O25
  1790  1786  1783  1802   9   0.00   1.04600   1 ;    H45-   C29-   C26-   O25
  1790  1786  1785  1792   9   0.00   0.00000   0 ;    H45-   C29-   C28-   O21
  1790  1786  1785  1792   9   0.00   1.04600   1 ;    H45-   C29-   C28-   O21
  1790  1786  1794  1795   9   0.00   0.47279   3 ;    H45-   C29-   O22-   H48
  1791  1784  1797  1798   9   0.00   0.65084   3 ;    H46-   C27-   C30-   H49
  1791  1784  1797  1799   9   0.00   0.65084   3 ;    H46-   C27-   C30-   H50
  1791  1784  1797  1800   9   0.00   0.00000   0 ;    H46-   C27-   C30-   O24
  1791  1784  1797  1800   9   0.00   1.04600   1 ;    H46-   C27-   C30-   O24
  1792  1785  1786  1794   9   0.00   3.76560   3 ;    O21-   C28-   C29-   O22
  1792  1785  1786  1794   9   0.00   4.72792   2 ;    O21-   C28-   C29-   O22
  1794  1786  1783  1796   9   0.00   0.00000   0 ;    O22-   C29-   C26-   O23
  1794  1786  1783  1796   9   0.00   4.22584   3 ;    O22-   C29-   C26-   O23
  1794  1786  1783  1796   9   180.00   0.08368   1 ;    O22-   C29-   C26-   O23
  1794  1786  1783  1802   9   0.00   0.00000   0 ;    O22-   C29-   C26-   O25
  1794  1786  1783  1802   9   0.00   4.22584   3 ;    O22-   C29-   C26-   O25
  1794  1786  1783  1802   9   180.00   0.08368   1 ;    O22-   C29-   C26-   O25
  1796  1783  1802  1803   9   0.00   5.18816   2 ;    O23-   C26-   O25-   C31
  1796  1783  1802  1803   9   180.00   0.00000   3 ;    O23-   C26-   O25-   C31
  1796  1783  1802  1803   9   180.00   4.05848   1 ;    O23-   C26-   O25-   C31
  1796  1784  1797  1798   9   0.00   0.00000   0 ;    O23-   C27-   C30-   H49
  1796  1784  1797  1798   9   0.00   1.04600   1 ;    O23-   C27-   C30-   H49
  1796  1784  1797  1799   9   0.00   0.00000   0 ;    O23-   C27-   C30-   H50
  1796  1784  1797  1799   9   0.00   1.04600   1 ;    O23-   C27-   C30-   H50
  1796  1784  1797  1800   9   0.00   0.00000   0 ;    O23-   C27-   C30-   O24
  1796  1784  1797  1800   9   0.00   4.22584   3 ;    O23-   C27-   C30-   O24
  1796  1784  1797  1800   9   180.00   0.08368   1 ;    O23-   C27-   C30-   O24
  1798  1797  1800  1801   9   0.00   0.47279   3 ;    H49-   C30-   O24-   H51
  1799  1797  1800  1801   9   0.00   0.47279   3 ;    H50-   C30-   O24-   H51
  1802  1803  1805  1804   9   0.00   0.65084   3 ;    O25-   C31-   C33-   C32
  1802  1803  1805  1808   9   0.00   0.00000   0 ;    O25-   C31-   C33-   H52
  1802  1803  1805  1808   9   0.00   1.04600   1 ;    O25-   C31-   C33-   H52
  1802  1803  1805  1821   9   0.00   0.00000   0 ;    O25-   C31-   C33-   O29
  1802  1803  1805  1821   9   0.00   4.22584   3 ;    O25-   C31-   C33-   O29
  1802  1803  1805  1821   9   180.00   0.08368   1 ;    O25-   C31-   C33-   O29
  1802  1803  1806  1810   9   0.00   0.00000   0 ;    O25-   C31-   C34-   H54
  1802  1803  1806  1810   9   0.00   1.04600   1 ;    O25-   C31-   C34-   H54
  1802  1803  1806  1813   9   0.00   0.00000   0 ;    O25-   C31-   C34-   O26
  1802  1803  1806  1813   9   180.00   0.00000   2 ;    O25-   C31-   C34-   O26
  1802  1803  1806  1813   9   180.00   0.71128   1 ;    O25-   C31-   C34-   O26
  1802  1803  1806  1814   9   0.00   0.65084   3 ;    O25-   C31-   C34-   C36
  1803  1805  1804  1807   9   0.00   0.46024   1 ;    C31-   C33-   C32-   C35
  1803  1805  1804  1807   9   0.00   0.54392   3 ;    C31-   C33-   C32-   C35
  1803  1805  1804  1807   9   180.00   1.21336   2 ;    C31-   C33-   C32-   C35
  1803  1805  1804  1809   9   0.00   0.65084   3 ;    C31-   C33-   C32-   H53
  1803  1805  1804  1819   9   0.00   0.87864   3 ;    C31-   C33-   C32-   O28
  1803  1805  1821  1822   9   0.00   0.00000   0 ;    C31-   C33-   O29-   H61
  1803  1806  1813  1807   9   0.00   0.00000   0 ;    C31-   C34-   O26-   C35
  1803  1806  1813  1807   9   0.00   0.66944   2 ;    C31-   C34-   O26-   C35
  1803  1806  1813  1807   9   0.00   1.00416   3 ;    C31-   C34-   O26-   C35
  1803  1806  1814  1815   9   0.00   0.65084   3 ;    C31-   C34-   C36-   H57
  1803  1806  1814  1816   9   0.00   0.65084   3 ;    C31-   C34-   C36-   H58
  1803  1806  1814  1817   9   0.00   0.87864   3 ;    C31-   C34-   C36-   O27
  1804  1805  1803  1806   9   0.00   0.46024   1 ;    C32-   C33-   C31-   C34
  1804  1805  1803  1806   9   0.00   0.54392   3 ;    C32-   C33-   C31-   C34
  1804  1805  1803  1806   9   180.00   1.21336   2 ;    C32-   C33-   C31-   C34
  1804  1805  1803  1812   9   0.00   0.65084   3 ;    C32-   C33-   C31-   H56
  1804  1805  1821  1822   9   0.00   0.00000   0 ;    C32-   C33-   O29-   H61
  1804  1807  1813  1806   9   0.00   0.00000   0 ;    C32-   C35-   O26-   C34
  1804  1807  1813  1806   9   0.00   0.66944   2 ;    C32-   C35-   O26-   C34
  1804  1807  1813  1806   9   0.00   1.00416   3 ;    C32-   C35-   O26-   C34
  1804  1807  1823  1824   9   0.00   0.00000   0 ;    C32-   C35-   O30-   C37
  1804  1807  1823  1824   9   0.00   0.66944   2 ;    C32-   C35-   O30-   C37
  1804  1807  1823  1824   9   0.00   1.00416   3 ;    C32-   C35-   O30-   C37
  1805  1803  1806  1810   9   0.00   0.65084   3 ;    C33-   C31-   C34-   H54
  1805  1803  1806  1813   9   0.00   0.65084   3 ;    C33-   C31-   C34-   O26
  1805  1803  1806  1814   9   0.00   0.46024   1 ;    C33-   C31-   C34-   C36
  1805  1803  1806  1814   9   0.00   0.54392   3 ;    C33-   C31-   C34-   C36
  1805  1803  1806  1814   9   180.00   1.21336   2 ;    C33-   C31-   C34-   C36
  1805  1804  1807  1811   9   0.00   0.65084   3 ;    C33-   C32-   C35-   H55
  1805  1804  1807  1813   9   0.00   0.65084   3 ;    C33-   C32-   C35-   O26
  1805  1804  1807  1823   9   0.00   0.65084   3 ;    C33-   C32-   C35-   O30
  1805  1804  1819  1820   9   0.00   0.00000   0 ;    C33-   C32-   O28-   H60
  1806  1803  1805  1808   9   0.00   0.65084   3 ;    C34-   C31-   C33-   H52
  1806  1803  1805  1821   9   0.00   0.87864   3 ;    C34-   C31-   C33-   O29
  1806  1813  1807  1811   9   0.00   1.60387   3 ;    C34-   O26-   C35-   H55
  1806  1813  1807  1823   9   0.00   5.18816   2 ;    C34-   O26-   C35-   O30
  1806  1813  1807  1823   9   180.00   0.00000   3 ;    C34-   O26-   C35-   O30
  1806  1813  1807  1823   9   180.00   4.05848   1 ;    C34-   O26-   C35-   O30
  1806  1814  1817  1818   9   0.00   0.00000   0 ;    C34-   C36-   O27-   H59
  1807  1804  1805  1808   9   0.00   0.65084   3 ;    C35-   C32-   C33-   H52
  1807  1804  1805  1821   9   0.00   0.87864   3 ;    C35-   C32-   C33-   O29
  1807  1804  1819  1820   9   0.00   0.00000   0 ;    C35-   C32-   O28-   H60
  1807  1813  1806  1810   9   0.00   1.41001   3 ;    C35-   O26-   C34-   H54
  1807  1813  1806  1814   9   0.00   0.00000   0 ;    C35-   O26-   C34-   C36
  1807  1813  1806  1814   9   0.00   0.66944   2 ;    C35-   O26-   C34-   C36
  1807  1813  1806  1814   9   0.00   1.00416   3 ;    C35-   O26-   C34-   C36
  1807  1823  1824  1826   9   0.00   0.00000   0 ;    C35-   O30-   C37-   C39
  1807  1823  1824  1826   9   0.00   0.66944   2 ;    C35-   O30-   C37-   C39
  1807  1823  1824  1826   9   0.00   1.00416   3 ;    C35-   O30-   C37-   C39
  1807  1823  1824  1827   9   0.00   0.00000   0 ;    C35-   O30-   C37-   C40
  1807  1823  1824  1827   9   0.00   0.66944   2 ;    C35-   O30-   C37-   C40
  1807  1823  1824  1827   9   0.00   1.00416   3 ;    C35-   O30-   C37-   C40
  1807  1823  1824  1830   9   0.00   1.41001   3 ;    C35-   O30-   C37-   H63
  1808  1805  1803  1812   9   0.00   0.65084   3 ;    H52-   C33-   C31-   H56
  1808  1805  1804  1809   9   0.00   0.65084   3 ;    H52-   C33-   C32-   H53
  1808  1805  1804  1819   9   0.00   0.00000   0 ;    H52-   C33-   C32-   O28
  1808  1805  1804  1819   9   0.00   1.04600   1 ;    H52-   C33-   C32-   O28
  1808  1805  1821  1822   9   0.00   0.47279   3 ;    H52-   C33-   O29-   H61
  1809  1804  1805  1821   9   0.00   0.00000   0 ;    H53-   C32-   C33-   O29
  1809  1804  1805  1821   9   0.00   1.04600   1 ;    H53-   C32-   C33-   O29
  1809  1804  1807  1811   9   0.00   0.65084   3 ;    H53-   C32-   C35-   H55
  1809  1804  1807  1813   9   0.00   0.00000   0 ;    H53-   C32-   C35-   O26
  1809  1804  1807  1813   9   0.00   1.04600   1 ;    H53-   C32-   C35-   O26
  1809  1804  1807  1823   9   0.00   0.00000   0 ;    H53-   C32-   C35-   O30
  1809  1804  1807  1823   9   0.00   1.04600   1 ;    H53-   C32-   C35-   O30
  1809  1804  1819  1820   9   0.00   0.47279   3 ;    H53-   C32-   O28-   H60
  1810  1806  1803  1812   9   0.00   0.65084   3 ;    H54-   C34-   C31-   H56
  1810  1806  1814  1815   9   0.00   0.65084   3 ;    H54-   C34-   C36-   H57
  1810  1806  1814  1816   9   0.00   0.65084   3 ;    H54-   C34-   C36-   H58
  1810  1806  1814  1817   9   0.00   0.00000   0 ;    H54-   C34-   C36-   O27
  1810  1806  1814  1817   9   0.00   1.04600   1 ;    H54-   C34-   C36-   O27
  1811  1807  1804  1819   9   0.00   0.65084   3 ;    H55-   C35-   C32-   O28
  1811  1807  1823  1824   9   0.00   1.60387   3 ;    H55-   C35-   O30-   C37
  1812  1803  1805  1821   9   0.00   0.00000   0 ;    H56-   C31-   C33-   O29
  1812  1803  1805  1821   9   0.00   1.04600   1 ;    H56-   C31-   C33-   O29
  1812  1803  1806  1813   9   0.00   0.00000   0 ;    H56-   C31-   C34-   O26
  1812  1803  1806  1813   9   0.00   1.04600   1 ;    H56-   C31-   C34-   O26
  1812  1803  1806  1814   9   0.00   0.65084   3 ;    H56-   C31-   C34-   C36
  1813  1806  1814  1815   9   0.00   0.00000   0 ;    O26-   C34-   C36-   H57
  1813  1806  1814  1815   9   0.00   1.04600   1 ;    O26-   C34-   C36-   H57
  1813  1806  1814  1816   9   0.00   0.00000   0 ;    O26-   C34-   C36-   H58
  1813  1806  1814  1816   9   0.00   1.04600   1 ;    O26-   C34-   C36-   H58
  1813  1806  1814  1817   9   0.00   0.00000   0 ;    O26-   C34-   C36-   O27
  1813  1806  1814  1817   9   0.00   4.22584   3 ;    O26-   C34-   C36-   O27
  1813  1806  1814  1817   9   180.00   0.08368   1 ;    O26-   C34-   C36-   O27
  1813  1807  1804  1819   9   0.00   0.00000   0 ;    O26-   C35-   C32-   O28
  1813  1807  1804  1819   9   0.00   4.22584   3 ;    O26-   C35-   C32-   O28
  1813  1807  1804  1819   9   180.00   0.08368   1 ;    O26-   C35-   C32-   O28
  1813  1807  1823  1824   9   0.00   5.18816   2 ;    O26-   C35-   O30-   C37
  1813  1807  1823  1824   9   180.00   0.00000   3 ;    O26-   C35-   O30-   C37
  1813  1807  1823  1824   9   180.00   4.05848   1 ;    O26-   C35-   O30-   C37
  1815  1814  1817  1818   9   0.00   0.47279   3 ;    H57-   C36-   O27-   H59
  1816  1814  1817  1818   9   0.00   0.47279   3 ;    H58-   C36-   O27-   H59
  1819  1804  1805  1821   9   0.00   3.76560   3 ;    O28-   C32-   C33-   O29
  1819  1804  1805  1821   9   0.00   4.72792   2 ;    O28-   C32-   C33-   O29
  1819  1804  1807  1823   9   0.00   0.00000   0 ;    O28-   C32-   C35-   O30
  1819  1804  1807  1823   9   0.00   4.22584   3 ;    O28-   C32-   C35-   O30
  1819  1804  1807  1823   9   180.00   0.08368   1 ;    O28-   C32-   C35-   O30
  1823  1824  1826  1833   9   0.00   0.00000   0 ;    O30-   C37-   C39-   H66
  1823  1824  1826  1833   9   0.00   1.04600   1 ;    O30-   C37-   C39-   H66
  1823  1824  1826  1838   9   0.00   0.00000   0 ;    O30-   C37-   C39-   O33
  1823  1824  1826  1838   9   180.00   0.00000   2 ;    O30-   C37-   C39-   O33
  1823  1824  1826  1838   9   180.00   0.71128   1 ;    O30-   C37-   C39-   O33
  1823  1824  1826  1839   9   0.00   0.65084   3 ;    O30-   C37-   C39-   C42
  1823  1824  1827  1828   9   0.00   0.65084   3 ;    O30-   C37-   C40-   C41
  1823  1824  1827  1831   9   0.00   0.00000   0 ;    O30-   C37-   C40-   H64
  1823  1824  1827  1831   9   0.00   1.04600   1 ;    O30-   C37-   C40-   H64
  1823  1824  1827  1834   9   0.00   0.00000   0 ;    O30-   C37-   C40-   O31
  1823  1824  1827  1834   9   0.00   4.22584   3 ;    O30-   C37-   C40-   O31
  1823  1824  1827  1834   9   180.00   0.08368   1 ;    O30-   C37-   C40-   O31
  1824  1826  1838  1825   9   0.00   0.00000   0 ;    C37-   C39-   O33-   C38
  1824  1826  1838  1825   9   0.00   0.66944   2 ;    C37-   C39-   O33-   C38
  1824  1826  1838  1825   9   0.00   1.00416   3 ;    C37-   C39-   O33-   C38
  1824  1826  1839  1840   9   0.00   0.65084   3 ;    C37-   C39-   C42-   H69
  1824  1826  1839  1841   9   0.00   0.65084   3 ;    C37-   C39-   C42-   H70
  1824  1826  1839  1842   9   0.00   0.87864   3 ;    C37-   C39-   C42-   O34
  1824  1827  1828  1825   9   0.00   0.46024   1 ;    C37-   C40-   C41-   C38
  1824  1827  1828  1825   9   0.00   0.54392   3 ;    C37-   C40-   C41-   C38
  1824  1827  1828  1825   9   180.00   1.21336   2 ;    C37-   C40-   C41-   C38
  1824  1827  1828  1832   9   0.00   0.65084   3 ;    C37-   C40-   C41-   H65
  1824  1827  1828  1836   9   0.00   0.87864   3 ;    C37-   C40-   C41-   O32
  1824  1827  1834  1835   9   0.00   0.00000   0 ;    C37-   C40-   O31-   H67
  1825  1828  1827  1831   9   0.00   0.65084   3 ;    C38-   C41-   C40-   H64
  1825  1828  1827  1834   9   0.00   0.87864   3 ;    C38-   C41-   C40-   O31
  1825  1828  1836  1837   9   0.00   0.00000   0 ;    C38-   C41-   O32-   H68
  1825  1838  1826  1833   9   0.00   1.41001   3 ;    C38-   O33-   C39-   H66
  1825  1838  1826  1839   9   0.00   0.00000   0 ;    C38-   O33-   C39-   C42
  1825  1838  1826  1839   9   0.00   0.66944   2 ;    C38-   O33-   C39-   C42
  1825  1838  1826  1839   9   0.00   1.00416   3 ;    C38-   O33-   C39-   C42
  1825  1844  1845  1847   9   0.00   0.00000   0 ;    C38-   O35-   C43-   C45
  1825  1844  1845  1847   9   0.00   0.66944   2 ;    C38-   O35-   C43-   C45
  1825  1844  1845  1847   9   0.00   1.00416   3 ;    C38-   O35-   C43-   C45
  1825  1844  1845  1848   9   0.00   0.00000   0 ;    C38-   O35-   C43-   C46
  1825  1844  1845  1848   9   0.00   0.66944   2 ;    C38-   O35-   C43-   C46
  1825  1844  1845  1848   9   0.00   1.00416   3 ;    C38-   O35-   C43-   C46
  1825  1844  1845  1854   9   0.00   1.41001   3 ;    C38-   O35-   C43-   H76
  1826  1824  1827  1828   9   0.00   0.46024   1 ;    C39-   C37-   C40-   C41
  1826  1824  1827  1828   9   0.00   0.54392   3 ;    C39-   C37-   C40-   C41
  1826  1824  1827  1828   9   180.00   1.21336   2 ;    C39-   C37-   C40-   C41
  1826  1824  1827  1831   9   0.00   0.65084   3 ;    C39-   C37-   C40-   H64
  1826  1824  1827  1834   9   0.00   0.87864   3 ;    C39-   C37-   C40-   O31
  1826  1838  1825  1828   9   0.00   0.00000   0 ;    C39-   O33-   C38-   C41
  1826  1838  1825  1828   9   0.00   0.66944   2 ;    C39-   O33-   C38-   C41
  1826  1838  1825  1828   9   0.00   1.00416   3 ;    C39-   O33-   C38-   C41
  1826  1838  1825  1829   9   0.00   1.60387   3 ;    C39-   O33-   C38-   H62
  1826  1838  1825  1844   9   0.00   5.18816   2 ;    C39-   O33-   C38-   O35
  1826  1838  1825  1844   9   180.00   0.00000   3 ;    C39-   O33-   C38-   O35
  1826  1838  1825  1844   9   180.00   4.05848   1 ;    C39-   O33-   C38-   O35
  1826  1839  1842  1843   9   0.00   0.00000   0 ;    C39-   C42-   O34-   H71
  1827  1824  1826  1833   9   0.00   0.65084   3 ;    C40-   C37-   C39-   H66
  1827  1824  1826  1838   9   0.00   0.65084   3 ;    C40-   C37-   C39-   O33
  1827  1824  1826  1839   9   0.00   0.46024   1 ;    C40-   C37-   C39-   C42
  1827  1824  1826  1839   9   0.00   0.54392   3 ;    C40-   C37-   C39-   C42
  1827  1824  1826  1839   9   180.00   1.21336   2 ;    C40-   C37-   C39-   C42
  1827  1828  1825  1829   9   0.00   0.65084   3 ;    C40-   C41-   C38-   H62
  1827  1828  1825  1838   9   0.00   0.65084   3 ;    C40-   C41-   C38-   O33
  1827  1828  1825  1844   9   0.00   0.65084   3 ;    C40-   C41-   C38-   O35
  1827  1828  1836  1837   9   0.00   0.00000   0 ;    C40-   C41-   O32-   H68
  1828  1825  1844  1845   9   0.00   0.00000   0 ;    C41-   C38-   O35-   C43
  1828  1825  1844  1845   9   0.00   0.66944   2 ;    C41-   C38-   O35-   C43
  1828  1825  1844  1845   9   0.00   1.00416   3 ;    C41-   C38-   O35-   C43
  1828  1827  1824  1830   9   0.00   0.65084   3 ;    C41-   C40-   C37-   H63
  1828  1827  1834  1835   9   0.00   0.00000   0 ;    C41-   C40-   O31-   H67
  1829  1825  1828  1832   9   0.00   0.65084   3 ;    H62-   C38-   C41-   H65
  1829  1825  1828  1836   9   0.00   0.65084   3 ;    H62-   C38-   C41-   O32
  1829  1825  1844  1845   9   0.00   1.60387   3 ;    H62-   C38-   O35-   C43
  1830  1824  1826  1833   9   0.00   0.65084   3 ;    H63-   C37-   C39-   H66
  1830  1824  1826  1838   9   0.00   0.00000   0 ;    H63-   C37-   C39-   O33
  1830  1824  1826  1838   9   0.00   1.04600   1 ;    H63-   C37-   C39-   O33
  1830  1824  1826  1839   9   0.00   0.65084   3 ;    H63-   C37-   C39-   C42
  1830  1824  1827  1831   9   0.00   0.65084   3 ;    H63-   C37-   C40-   H64
  1830  1824  1827  1834   9   0.00   0.00000   0 ;    H63-   C37-   C40-   O31
  1830  1824  1827  1834   9   0.00   1.04600   1 ;    H63-   C37-   C40-   O31
  1831  1827  1828  1832   9   0.00   0.65084   3 ;    H64-   C40-   C41-   H65
  1831  1827  1828  1836   9   0.00   0.00000   0 ;    H64-   C40-   C41-   O32
  1831  1827  1828  1836   9   0.00   1.04600   1 ;    H64-   C40-   C41-   O32
  1831  1827  1834  1835   9   0.00   0.47279   3 ;    H64-   C40-   O31-   H67
  1832  1828  1825  1838   9   0.00   0.00000   0 ;    H65-   C41-   C38-   O33
  1832  1828  1825  1838   9   0.00   1.04600   1 ;    H65-   C41-   C38-   O33
  1832  1828  1825  1844   9   0.00   0.00000   0 ;    H65-   C41-   C38-   O35
  1832  1828  1825  1844   9   0.00   1.04600   1 ;    H65-   C41-   C38-   O35
  1832  1828  1827  1834   9   0.00   0.00000   0 ;    H65-   C41-   C40-   O31
  1832  1828  1827  1834   9   0.00   1.04600   1 ;    H65-   C41-   C40-   O31
  1832  1828  1836  1837   9   0.00   0.47279   3 ;    H65-   C41-   O32-   H68
  1833  1826  1839  1840   9   0.00   0.65084   3 ;    H66-   C39-   C42-   H69
  1833  1826  1839  1841   9   0.00   0.65084   3 ;    H66-   C39-   C42-   H70
  1833  1826  1839  1842   9   0.00   0.00000   0 ;    H66-   C39-   C42-   O34
  1833  1826  1839  1842   9   0.00   1.04600   1 ;    H66-   C39-   C42-   O34
  1834  1827  1828  1836   9   0.00   3.76560   3 ;    O31-   C40-   C41-   O32
  1834  1827  1828  1836   9   0.00   4.72792   2 ;    O31-   C40-   C41-   O32
  1836  1828  1825  1838   9   0.00   0.00000   0 ;    O32-   C41-   C38-   O33
  1836  1828  1825  1838   9   0.00   4.22584   3 ;    O32-   C41-   C38-   O33
  1836  1828  1825  1838   9   180.00   0.08368   1 ;    O32-   C41-   C38-   O33
  1836  1828  1825  1844   9   0.00   0.00000   0 ;    O32-   C41-   C38-   O35
  1836  1828  1825  1844   9   0.00   4.22584   3 ;    O32-   C41-   C38-   O35
  1836  1828  1825  1844   9   180.00   0.08368   1 ;    O32-   C41-   C38-   O35
  1838  1825  1844  1845   9   0.00   5.18816   2 ;    O33-   C38-   O35-   C43
  1838  1825  1844  1845   9   180.00   0.00000   3 ;    O33-   C38-   O35-   C43
  1838  1825  1844  1845   9   180.00   4.05848   1 ;    O33-   C38-   O35-   C43
  1838  1826  1839  1840   9   0.00   0.00000   0 ;    O33-   C39-   C42-   H69
  1838  1826  1839  1840   9   0.00   1.04600   1 ;    O33-   C39-   C42-   H69
  1838  1826  1839  1841   9   0.00   0.00000   0 ;    O33-   C39-   C42-   H70
  1838  1826  1839  1841   9   0.00   1.04600   1 ;    O33-   C39-   C42-   H70
  1838  1826  1839  1842   9   0.00   0.00000   0 ;    O33-   C39-   C42-   O34
  1838  1826  1839  1842   9   0.00   4.22584   3 ;    O33-   C39-   C42-   O34
  1838  1826  1839  1842   9   180.00   0.08368   1 ;    O33-   C39-   C42-   O34
  1840  1839  1842  1843   9   0.00   0.47279   3 ;    H69-   C42-   O34-   H71
  1841  1839  1842  1843   9   0.00   0.47279   3 ;    H70-   C42-   O34-   H71
  1844  1845  1847  1846   9   0.00   0.65084   3 ;    O35-   C43-   C45-   C44
  1844  1845  1847  1850   9   0.00   0.00000   0 ;    O35-   C43-   C45-   H72
  1844  1845  1847  1850   9   0.00   1.04600   1 ;    O35-   C43-   C45-   H72
  1844  1845  1847  1863   9   0.00   0.00000   0 ;    O35-   C43-   C45-   O39
  1844  1845  1847  1863   9   0.00   4.22584   3 ;    O35-   C43-   C45-   O39
  1844  1845  1847  1863   9   180.00   0.08368   1 ;    O35-   C43-   C45-   O39
  1844  1845  1848  1852   9   0.00   0.00000   0 ;    O35-   C43-   C46-   H74
  1844  1845  1848  1852   9   0.00   1.04600   1 ;    O35-   C43-   C46-   H74
  1844  1845  1848  1855   9   0.00   0.00000   0 ;    O35-   C43-   C46-   O36
  1844  1845  1848  1855   9   180.00   0.00000   2 ;    O35-   C43-   C46-   O36
  1844  1845  1848  1855   9   180.00   0.71128   1 ;    O35-   C43-   C46-   O36
  1844  1845  1848  1856   9   0.00   0.65084   3 ;    O35-   C43-   C46-   C48
  1845  1847  1846  1849   9   0.00   0.46024   1 ;    C43-   C45-   C44-   C47
  1845  1847  1846  1849   9   0.00   0.54392   3 ;    C43-   C45-   C44-   C47
  1845  1847  1846  1849   9   180.00   1.21336   2 ;    C43-   C45-   C44-   C47
  1845  1847  1846  1851   9   0.00   0.65084   3 ;    C43-   C45-   C44-   H73
  1845  1847  1846  1861   9   0.00   0.87864   3 ;    C43-   C45-   C44-   O38
  1845  1847  1863  1864   9   0.00   0.00000   0 ;    C43-   C45-   O39-   H81
  1845  1848  1855  1849   9   0.00   0.00000   0 ;    C43-   C46-   O36-   C47
  1845  1848  1855  1849   9   0.00   0.66944   2 ;    C43-   C46-   O36-   C47
  1845  1848  1855  1849   9   0.00   1.00416   3 ;    C43-   C46-   O36-   C47
  1845  1848  1856  1857   9   0.00   0.65084   3 ;    C43-   C46-   C48-   H77
  1845  1848  1856  1858   9   0.00   0.65084   3 ;    C43-   C46-   C48-   H78
  1845  1848  1856  1859   9   0.00   0.87864   3 ;    C43-   C46-   C48-   O37
  1846  1847  1845  1848   9   0.00   0.46024   1 ;    C44-   C45-   C43-   C46
  1846  1847  1845  1848   9   0.00   0.54392   3 ;    C44-   C45-   C43-   C46
  1846  1847  1845  1848   9   180.00   1.21336   2 ;    C44-   C45-   C43-   C46
  1846  1847  1845  1854   9   0.00   0.65084   3 ;    C44-   C45-   C43-   H76
  1846  1847  1863  1864   9   0.00   0.00000   0 ;    C44-   C45-   O39-   H81
  1846  1849  1855  1848   9   0.00   0.00000   0 ;    C44-   C47-   O36-   C46
  1846  1849  1855  1848   9   0.00   0.66944   2 ;    C44-   C47-   O36-   C46
  1846  1849  1855  1848   9   0.00   1.00416   3 ;    C44-   C47-   O36-   C46
  1846  1849  1865  1866   9   0.00   0.00000   0 ;    C44-   C47-   O40-   C49
  1846  1849  1865  1866   9   0.00   0.66944   2 ;    C44-   C47-   O40-   C49
  1846  1849  1865  1866   9   0.00   1.00416   3 ;    C44-   C47-   O40-   C49
  1847  1845  1848  1852   9   0.00   0.65084   3 ;    C45-   C43-   C46-   H74
  1847  1845  1848  1855   9   0.00   0.65084   3 ;    C45-   C43-   C46-   O36
  1847  1845  1848  1856   9   0.00   0.46024   1 ;    C45-   C43-   C46-   C48
  1847  1845  1848  1856   9   0.00   0.54392   3 ;    C45-   C43-   C46-   C48
  1847  1845  1848  1856   9   180.00   1.21336   2 ;    C45-   C43-   C46-   C48
  1847  1846  1849  1853   9   0.00   0.65084   3 ;    C45-   C44-   C47-   H75
  1847  1846  1849  1855   9   0.00   0.65084   3 ;    C45-   C44-   C47-   O36
  1847  1846  1849  1865   9   0.00   0.65084   3 ;    C45-   C44-   C47-   O40
  1847  1846  1861  1862   9   0.00   0.00000   0 ;    C45-   C44-   O38-   H80
  1848  1845  1847  1850   9   0.00   0.65084   3 ;    C46-   C43-   C45-   H72
  1848  1845  1847  1863   9   0.00   0.87864   3 ;    C46-   C43-   C45-   O39
  1848  1855  1849  1853   9   0.00   1.60387   3 ;    C46-   O36-   C47-   H75
  1848  1855  1849  1865   9   0.00   5.18816   2 ;    C46-   O36-   C47-   O40
  1848  1855  1849  1865   9   180.00   0.00000   3 ;    C46-   O36-   C47-   O40
  1848  1855  1849  1865   9   180.00   4.05848   1 ;    C46-   O36-   C47-   O40
  1848  1856  1859  1860   9   0.00   0.00000   0 ;    C46-   C48-   O37-   H79
  1849  1846  1847  1850   9   0.00   0.65084   3 ;    C47-   C44-   C45-   H72
  1849  1846  1847  1863   9   0.00   0.87864   3 ;    C47-   C44-   C45-   O39
  1849  1846  1861  1862   9   0.00   0.00000   0 ;    C47-   C44-   O38-   H80
  1849  1855  1848  1852   9   0.00   1.41001   3 ;    C47-   O36-   C46-   H74
  1849  1855  1848  1856   9   0.00   0.00000   0 ;    C47-   O36-   C46-   C48
  1849  1855  1848  1856   9   0.00   0.66944   2 ;    C47-   O36-   C46-   C48
  1849  1855  1848  1856   9   0.00   1.00416   3 ;    C47-   O36-   C46-   C48
  1849  1865  1866  1868   9   0.00   0.00000   0 ;    C47-   O40-   C49-   C51
  1849  1865  1866  1868   9   0.00   0.66944   2 ;    C47-   O40-   C49-   C51
  1849  1865  1866  1868   9   0.00   1.00416   3 ;    C47-   O40-   C49-   C51
  1849  1865  1866  1869   9   0.00   0.00000   0 ;    C47-   O40-   C49-   C52
  1849  1865  1866  1869   9   0.00   0.66944   2 ;    C47-   O40-   C49-   C52
  1849  1865  1866  1869   9   0.00   1.00416   3 ;    C47-   O40-   C49-   C52
  1849  1865  1866  1872   9   0.00   1.41001   3 ;    C47-   O40-   C49-   H83
  1850  1847  1845  1854   9   0.00   0.65084   3 ;    H72-   C45-   C43-   H76
  1850  1847  1846  1851   9   0.00   0.65084   3 ;    H72-   C45-   C44-   H73
  1850  1847  1846  1861   9   0.00   0.00000   0 ;    H72-   C45-   C44-   O38
  1850  1847  1846  1861   9   0.00   1.04600   1 ;    H72-   C45-   C44-   O38
  1850  1847  1863  1864   9   0.00   0.47279   3 ;    H72-   C45-   O39-   H81
  1851  1846  1847  1863   9   0.00   0.00000   0 ;    H73-   C44-   C45-   O39
  1851  1846  1847  1863   9   0.00   1.04600   1 ;    H73-   C44-   C45-   O39
  1851  1846  1849  1853   9   0.00   0.65084   3 ;    H73-   C44-   C47-   H75
  1851  1846  1849  1855   9   0.00   0.00000   0 ;    H73-   C44-   C47-   O36
  1851  1846  1849  1855   9   0.00   1.04600   1 ;    H73-   C44-   C47-   O36
  1851  1846  1849  1865   9   0.00   0.00000   0 ;    H73-   C44-   C47-   O40
  1851  1846  1849  1865   9   0.00   1.04600   1 ;    H73-   C44-   C47-   O40
  1851  1846  1861  1862   9   0.00   0.47279   3 ;    H73-   C44-   O38-   H80
  1852  1848  1845  1854   9   0.00   0.65084   3 ;    H74-   C46-   C43-   H76
  1852  1848  1856  1857   9   0.00   0.65084   3 ;    H74-   C46-   C48-   H77
  1852  1848  1856  1858   9   0.00   0.65084   3 ;    H74-   C46-   C48-   H78
  1852  1848  1856  1859   9   0.00   0.00000   0 ;    H74-   C46-   C48-   O37
  1852  1848  1856  1859   9   0.00   1.04600   1 ;    H74-   C46-   C48-   O37
  1853  1849  1846  1861   9   0.00   0.65084   3 ;    H75-   C47-   C44-   O38
  1853  1849  1865  1866   9   0.00   1.60387   3 ;    H75-   C47-   O40-   C49
  1854  1845  1847  1863   9   0.00   0.00000   0 ;    H76-   C43-   C45-   O39
  1854  1845  1847  1863   9   0.00   1.04600   1 ;    H76-   C43-   C45-   O39
  1854  1845  1848  1855   9   0.00   0.00000   0 ;    H76-   C43-   C46-   O36
  1854  1845  1848  1855   9   0.00   1.04600   1 ;    H76-   C43-   C46-   O36
  1854  1845  1848  1856   9   0.00   0.65084   3 ;    H76-   C43-   C46-   C48
  1855  1848  1856  1857   9   0.00   0.00000   0 ;    O36-   C46-   C48-   H77
  1855  1848  1856  1857   9   0.00   1.04600   1 ;    O36-   C46-   C48-   H77
  1855  1848  1856  1858   9   0.00   0.00000   0 ;    O36-   C46-   C48-   H78
  1855  1848  1856  1858   9   0.00   1.04600   1 ;    O36-   C46-   C48-   H78
  1855  1848  1856  1859   9   0.00   0.00000   0 ;    O36-   C46-   C48-   O37
  1855  1848  1856  1859   9   0.00   4.22584   3 ;    O36-   C46-   C48-   O37
  1855  1848  1856  1859   9   180.00   0.08368   1 ;    O36-   C46-   C48-   O37
  1855  1849  1846  1861   9   0.00   0.00000   0 ;    O36-   C47-   C44-   O38
  1855  1849  1846  1861   9   0.00   4.22584   3 ;    O36-   C47-   C44-   O38
  1855  1849  1846  1861   9   180.00   0.08368   1 ;    O36-   C47-   C44-   O38
  1855  1849  1865  1866   9   0.00   5.18816   2 ;    O36-   C47-   O40-   C49
  1855  1849  1865  1866   9   180.00   0.00000   3 ;    O36-   C47-   O40-   C49
  1855  1849  1865  1866   9   180.00   4.05848   1 ;    O36-   C47-   O40-   C49
  1857  1856  1859  1860   9   0.00   0.47279   3 ;    H77-   C48-   O37-   H79
  1858  1856  1859  1860   9   0.00   0.47279   3 ;    H78-   C48-   O37-   H79
  1861  1846  1847  1863   9   0.00   3.76560   3 ;    O38-   C44-   C45-   O39
  1861  1846  1847  1863   9   0.00   4.72792   2 ;    O38-   C44-   C45-   O39
  1861  1846  1849  1865   9   0.00   0.00000   0 ;    O38-   C44-   C47-   O40
  1861  1846  1849  1865   9   0.00   4.22584   3 ;    O38-   C44-   C47-   O40
  1861  1846  1849  1865   9   180.00   0.08368   1 ;    O38-   C44-   C47-   O40
  1865  1866  1868  1875   9   0.00   0.00000   0 ;    O40-   C49-   C51-   H86
  1865  1866  1868  1875   9   0.00   1.04600   1 ;    O40-   C49-   C51-   H86
  1865  1866  1868  1880   9   0.00   0.00000   0 ;    O40-   C49-   C51-   O43
  1865  1866  1868  1880   9   180.00   0.00000   2 ;    O40-   C49-   C51-   O43
  1865  1866  1868  1880   9   180.00   0.71128   1 ;    O40-   C49-   C51-   O43
  1865  1866  1868  1881   9   0.00   0.65084   3 ;    O40-   C49-   C51-   C54
  1865  1866  1869  1870   9   0.00   0.65084   3 ;    O40-   C49-   C52-   C53
  1865  1866  1869  1873   9   0.00   0.00000   0 ;    O40-   C49-   C52-   H84
  1865  1866  1869  1873   9   0.00   1.04600   1 ;    O40-   C49-   C52-   H84
  1865  1866  1869  1876   9   0.00   0.00000   0 ;    O40-   C49-   C52-   O41
  1865  1866  1869  1876   9   0.00   4.22584   3 ;    O40-   C49-   C52-   O41
  1865  1866  1869  1876   9   180.00   0.08368   1 ;    O40-   C49-   C52-   O41
  1866  1868  1880  1867   9   0.00   0.00000   0 ;    C49-   C51-   O43-   C50
  1866  1868  1880  1867   9   0.00   0.66944   2 ;    C49-   C51-   O43-   C50
  1866  1868  1880  1867   9   0.00   1.00416   3 ;    C49-   C51-   O43-   C50
  1866  1868  1881  1882   9   0.00   0.65084   3 ;    C49-   C51-   C54-   H89
  1866  1868  1881  1883   9   0.00   0.65084   3 ;    C49-   C51-   C54-   H90
  1866  1868  1881  1884   9   0.00   0.87864   3 ;    C49-   C51-   C54-   O44
  1866  1869  1870  1867   9   0.00   0.46024   1 ;    C49-   C52-   C53-   C50
  1866  1869  1870  1867   9   0.00   0.54392   3 ;    C49-   C52-   C53-   C50
  1866  1869  1870  1867   9   180.00   1.21336   2 ;    C49-   C52-   C53-   C50
  1866  1869  1870  1874   9   0.00   0.65084   3 ;    C49-   C52-   C53-   H85
  1866  1869  1870  1878   9   0.00   0.87864   3 ;    C49-   C52-   C53-   O42
  1866  1869  1876  1877   9   0.00   0.00000   0 ;    C49-   C52-   O41-   H87
  1867  1870  1869  1873   9   0.00   0.65084   3 ;    C50-   C53-   C52-   H84
  1867  1870  1869  1876   9   0.00   0.87864   3 ;    C50-   C53-   C52-   O41
  1867  1870  1878  1879   9   0.00   0.00000   0 ;    C50-   C53-   O42-   H88
  1867  1880  1868  1875   9   0.00   1.41001   3 ;    C50-   O43-   C51-   H86
  1867  1880  1868  1881   9   0.00   0.00000   0 ;    C50-   O43-   C51-   C54
  1867  1880  1868  1881   9   0.00   0.66944   2 ;    C50-   O43-   C51-   C54
  1867  1880  1868  1881   9   0.00   1.00416   3 ;    C50-   O43-   C51-   C54
  1867  1886  1887  1889   9   0.00   0.00000   0 ;    C50-   O45-   C55-   C57
  1867  1886  1887  1889   9   0.00   0.66944   2 ;    C50-   O45-   C55-   C57
  1867  1886  1887  1889   9   0.00   1.00416   3 ;    C50-   O45-   C55-   C57
  1867  1886  1887  1890   9   0.00   0.00000   0 ;    C50-   O45-   C55-   C58
  1867  1886  1887  1890   9   0.00   0.66944   2 ;    C50-   O45-   C55-   C58
  1867  1886  1887  1890   9   0.00   1.00416   3 ;    C50-   O45-   C55-   C58
  1867  1886  1887  1896   9   0.00   1.41001   3 ;    C50-   O45-   C55-   H96
  1868  1866  1869  1870   9   0.00   0.46024   1 ;    C51-   C49-   C52-   C53
  1868  1866  1869  1870   9   0.00   0.54392   3 ;    C51-   C49-   C52-   C53
  1868  1866  1869  1870   9   180.00   1.21336   2 ;    C51-   C49-   C52-   C53
  1868  1866  1869  1873   9   0.00   0.65084   3 ;    C51-   C49-   C52-   H84
  1868  1866  1869  1876   9   0.00   0.87864   3 ;    C51-   C49-   C52-   O41
  1868  1880  1867  1870   9   0.00   0.00000   0 ;    C51-   O43-   C50-   C53
  1868  1880  1867  1870   9   0.00   0.66944   2 ;    C51-   O43-   C50-   C53
  1868  1880  1867  1870   9   0.00   1.00416   3 ;    C51-   O43-   C50-   C53
  1868  1880  1867  1871   9   0.00   1.60387   3 ;    C51-   O43-   C50-   H82
  1868  1880  1867  1886   9   0.00   5.18816   2 ;    C51-   O43-   C50-   O45
  1868  1880  1867  1886   9   180.00   0.00000   3 ;    C51-   O43-   C50-   O45
  1868  1880  1867  1886   9   180.00   4.05848   1 ;    C51-   O43-   C50-   O45
  1868  1881  1884  1885   9   0.00   0.00000   0 ;    C51-   C54-   O44-   H91
  1869  1866  1868  1875   9   0.00   0.65084   3 ;    C52-   C49-   C51-   H86
  1869  1866  1868  1880   9   0.00   0.65084   3 ;    C52-   C49-   C51-   O43
  1869  1866  1868  1881   9   0.00   0.46024   1 ;    C52-   C49-   C51-   C54
  1869  1866  1868  1881   9   0.00   0.54392   3 ;    C52-   C49-   C51-   C54
  1869  1866  1868  1881   9   180.00   1.21336   2 ;    C52-   C49-   C51-   C54
  1869  1870  1867  1871   9   0.00   0.65084   3 ;    C52-   C53-   C50-   H82
  1869  1870  1867  1880   9   0.00   0.65084   3 ;    C52-   C53-   C50-   O43
  1869  1870  1867  1886   9   0.00   0.65084   3 ;    C52-   C53-   C50-   O45
  1869  1870  1878  1879   9   0.00   0.00000   0 ;    C52-   C53-   O42-   H88
  1870  1867  1886  1887   9   0.00   0.00000   0 ;    C53-   C50-   O45-   C55
  1870  1867  1886  1887   9   0.00   0.66944   2 ;    C53-   C50-   O45-   C55
  1870  1867  1886  1887   9   0.00   1.00416   3 ;    C53-   C50-   O45-   C55
  1870  1869  1866  1872   9   0.00   0.65084   3 ;    C53-   C52-   C49-   H83
  1870  1869  1876  1877   9   0.00   0.00000   0 ;    C53-   C52-   O41-   H87
  1871  1867  1870  1874   9   0.00   0.65084   3 ;    H82-   C50-   C53-   H85
  1871  1867  1870  1878   9   0.00   0.65084   3 ;    H82-   C50-   C53-   O42
  1871  1867  1886  1887   9   0.00   1.60387   3 ;    H82-   C50-   O45-   C55
  1872  1866  1868  1875   9   0.00   0.65084   3 ;    H83-   C49-   C51-   H86
  1872  1866  1868  1880   9   0.00   0.00000   0 ;    H83-   C49-   C51-   O43
  1872  1866  1868  1880   9   0.00   1.04600   1 ;    H83-   C49-   C51-   O43
  1872  1866  1868  1881   9   0.00   0.65084   3 ;    H83-   C49-   C51-   C54
  1872  1866  1869  1873   9   0.00   0.65084   3 ;    H83-   C49-   C52-   H84
  1872  1866  1869  1876   9   0.00   0.00000   0 ;    H83-   C49-   C52-   O41
  1872  1866  1869  1876   9   0.00   1.04600   1 ;    H83-   C49-   C52-   O41
  1873  1869  1870  1874   9   0.00   0.65084   3 ;    H84-   C52-   C53-   H85
  1873  1869  1870  1878   9   0.00   0.00000   0 ;    H84-   C52-   C53-   O42
  1873  1869  1870  1878   9   0.00   1.04600   1 ;    H84-   C52-   C53-   O42
  1873  1869  1876  1877   9   0.00   0.47279   3 ;    H84-   C52-   O41-   H87
  1874  1870  1867  1880   9   0.00   0.00000   0 ;    H85-   C53-   C50-   O43
  1874  1870  1867  1880   9   0.00   1.04600   1 ;    H85-   C53-   C50-   O43
  1874  1870  1867  1886   9   0.00   0.00000   0 ;    H85-   C53-   C50-   O45
  1874  1870  1867  1886   9   0.00   1.04600   1 ;    H85-   C53-   C50-   O45
  1874  1870  1869  1876   9   0.00   0.00000   0 ;    H85-   C53-   C52-   O41
  1874  1870  1869  1876   9   0.00   1.04600   1 ;    H85-   C53-   C52-   O41
  1874  1870  1878  1879   9   0.00   0.47279   3 ;    H85-   C53-   O42-   H88
  1875  1868  1881  1882   9   0.00   0.65084   3 ;    H86-   C51-   C54-   H89
  1875  1868  1881  1883   9   0.00   0.65084   3 ;    H86-   C51-   C54-   H90
  1875  1868  1881  1884   9   0.00   0.00000   0 ;    H86-   C51-   C54-   O44
  1875  1868  1881  1884   9   0.00   1.04600   1 ;    H86-   C51-   C54-   O44
  1876  1869  1870  1878   9   0.00   3.76560   3 ;    O41-   C52-   C53-   O42
  1876  1869  1870  1878   9   0.00   4.72792   2 ;    O41-   C52-   C53-   O42
  1878  1870  1867  1880   9   0.00   0.00000   0 ;    O42-   C53-   C50-   O43
  1878  1870  1867  1880   9   0.00   4.22584   3 ;    O42-   C53-   C50-   O43
  1878  1870  1867  1880   9   180.00   0.08368   1 ;    O42-   C53-   C50-   O43
  1878  1870  1867  1886   9   0.00   0.00000   0 ;    O42-   C53-   C50-   O45
  1878  1870  1867  1886   9   0.00   4.22584   3 ;    O42-   C53-   C50-   O45
  1878  1870  1867  1886   9   180.00   0.08368   1 ;    O42-   C53-   C50-   O45
  1880  1867  1886  1887   9   0.00   5.18816   2 ;    O43-   C50-   O45-   C55
  1880  1867  1886  1887   9   180.00   0.00000   3 ;    O43-   C50-   O45-   C55
  1880  1867  1886  1887   9   180.00   4.05848   1 ;    O43-   C50-   O45-   C55
  1880  1868  1881  1882   9   0.00   0.00000   0 ;    O43-   C51-   C54-   H89
  1880  1868  1881  1882   9   0.00   1.04600   1 ;    O43-   C51-   C54-   H89
  1880  1868  1881  1883   9   0.00   0.00000   0 ;    O43-   C51-   C54-   H90
  1880  1868  1881  1883   9   0.00   1.04600   1 ;    O43-   C51-   C54-   H90
  1880  1868  1881  1884   9   0.00   0.00000   0 ;    O43-   C51-   C54-   O44
  1880  1868  1881  1884   9   0.00   4.22584   3 ;    O43-   C51-   C54-   O44
  1880  1868  1881  1884   9   180.00   0.08368   1 ;    O43-   C51-   C54-   O44
  1882  1881  1884  1885   9   0.00   0.47279   3 ;    H89-   C54-   O44-   H91
  1883  1881  1884  1885   9   0.00   0.47279   3 ;    H90-   C54-   O44-   H91
  1886  1887  1889  1888   9   0.00   0.65084   3 ;    O45-   C55-   C57-   C56
  1886  1887  1889  1892   9   0.00   0.00000   0 ;    O45-   C55-   C57-   H92
  1886  1887  1889  1892   9   0.00   1.04600   1 ;    O45-   C55-   C57-   H92
  1886  1887  1889  1905   9   0.00   0.00000   0 ;    O45-   C55-   C57-   O49
  1886  1887  1889  1905   9   0.00   4.22584   3 ;    O45-   C55-   C57-   O49
  1886  1887  1889  1905   9   180.00   0.08368   1 ;    O45-   C55-   C57-   O49
  1886  1887  1890  1894   9   0.00   0.00000   0 ;    O45-   C55-   C58-   H94
  1886  1887  1890  1894   9   0.00   1.04600   1 ;    O45-   C55-   C58-   H94
  1886  1887  1890  1897   9   0.00   0.00000   0 ;    O45-   C55-   C58-   O46
  1886  1887  1890  1897   9   180.00   0.00000   2 ;    O45-   C55-   C58-   O46
  1886  1887  1890  1897   9   180.00   0.71128   1 ;    O45-   C55-   C58-   O46
  1886  1887  1890  1898   9   0.00   0.65084   3 ;    O45-   C55-   C58-   C60
  1887  1889  1888  1891   9   0.00   0.46024   1 ;    C55-   C57-   C56-   C59
  1887  1889  1888  1891   9   0.00   0.54392   3 ;    C55-   C57-   C56-   C59
  1887  1889  1888  1891   9   180.00   1.21336   2 ;    C55-   C57-   C56-   C59
  1887  1889  1888  1893   9   0.00   0.65084   3 ;    C55-   C57-   C56-   H93
  1887  1889  1888  1903   9   0.00   0.87864   3 ;    C55-   C57-   C56-   O48
  1887  1889  1905  1906   9   0.00   0.00000   0 ;    C55-   C57-   O49-  H101
  1887  1890  1897  1891   9   0.00   0.00000   0 ;    C55-   C58-   O46-   C59
  1887  1890  1897  1891   9   0.00   0.66944   2 ;    C55-   C58-   O46-   C59
  1887  1890  1897  1891   9   0.00   1.00416   3 ;    C55-   C58-   O46-   C59
  1887  1890  1898  1899   9   0.00   0.65084   3 ;    C55-   C58-   C60-   H97
  1887  1890  1898  1900   9   0.00   0.65084   3 ;    C55-   C58-   C60-   H98
  1887  1890  1898  1901   9   0.00   0.87864   3 ;    C55-   C58-   C60-   O47
  1888  1889  1887  1890   9   0.00   0.46024   1 ;    C56-   C57-   C55-   C58
  1888  1889  1887  1890   9   0.00   0.54392   3 ;    C56-   C57-   C55-   C58
  1888  1889  1887  1890   9   180.00   1.21336   2 ;    C56-   C57-   C55-   C58
  1888  1889  1887  1896   9   0.00   0.65084   3 ;    C56-   C57-   C55-   H96
  1888  1889  1905  1906   9   0.00   0.00000   0 ;    C56-   C57-   O49-  H101
  1888  1891  1897  1890   9   0.00   0.00000   0 ;    C56-   C59-   O46-   C58
  1888  1891  1897  1890   9   0.00   0.66944   2 ;    C56-   C59-   O46-   C58
  1888  1891  1897  1890   9   0.00   1.00416   3 ;    C56-   C59-   O46-   C58
  1888  1891  1907  1908   9   0.00   0.00000   0 ;    C56-   C59-   O50-  H102
  1889  1887  1890  1894   9   0.00   0.65084   3 ;    C57-   C55-   C58-   H94
  1889  1887  1890  1897   9   0.00   0.65084   3 ;    C57-   C55-   C58-   O46
  1889  1887  1890  1898   9   0.00   0.46024   1 ;    C57-   C55-   C58-   C60
  1889  1887  1890  1898   9   0.00   0.54392   3 ;    C57-   C55-   C58-   C60
  1889  1887  1890  1898   9   180.00   1.21336   2 ;    C57-   C55-   C58-   C60
  1889  1888  1891  1895   9   0.00   0.65084   3 ;    C57-   C56-   C59-   H95
  1889  1888  1891  1897   9   0.00   0.65084   3 ;    C57-   C56-   C59-   O46
  1889  1888  1891  1907   9   0.00   0.87864   3 ;    C57-   C56-   C59-   O50
  1889  1888  1903  1904   9   0.00   0.00000   0 ;    C57-   C56-   O48-  H100
  1890  1887  1889  1892   9   0.00   0.65084   3 ;    C58-   C55-   C57-   H92
  1890  1887  1889  1905   9   0.00   0.87864   3 ;    C58-   C55-   C57-   O49
  1890  1897  1891  1895   9   0.00   1.60387   3 ;    C58-   O46-   C59-   H95
  1890  1897  1891  1907   9   0.00   1.60387   3 ;    C58-   O46-   C59-   O50
  1890  1898  1901  1902   9   0.00   0.00000   0 ;    C58-   C60-   O47-   H99
  1891  1888  1889  1892   9   0.00   0.65084   3 ;    C59-   C56-   C57-   H92
  1891  1888  1889  1905   9   0.00   0.87864   3 ;    C59-   C56-   C57-   O49
  1891  1888  1903  1904   9   0.00   0.00000   0 ;    C59-   C56-   O48-  H100
  1891  1897  1890  1894   9   0.00   1.41001   3 ;    C59-   O46-   C58-   H94
  1891  1897  1890  1898   9   0.00   0.00000   0 ;    C59-   O46-   C58-   C60
  1891  1897  1890  1898   9   0.00   0.66944   2 ;    C59-   O46-   C58-   C60
  1891  1897  1890  1898   9   0.00   1.00416   3 ;    C59-   O46-   C58-   C60
  1892  1889  1887  1896   9   0.00   0.65084   3 ;    H92-   C57-   C55-   H96
  1892  1889  1888  1893   9   0.00   0.65084   3 ;    H92-   C57-   C56-   H93
  1892  1889  1888  1903   9   0.00   0.00000   0 ;    H92-   C57-   C56-   O48
  1892  1889  1888  1903   9   0.00   1.04600   1 ;    H92-   C57-   C56-   O48
  1892  1889  1905  1906   9   0.00   0.47279   3 ;    H92-   C57-   O49-  H101
  1893  1888  1889  1905   9   0.00   0.00000   0 ;    H93-   C56-   C57-   O49
  1893  1888  1889  1905   9   0.00   1.04600   1 ;    H93-   C56-   C57-   O49
  1893  1888  1891  1895   9   0.00   0.65084   3 ;    H93-   C56-   C59-   H95
  1893  1888  1891  1897   9   0.00   0.00000   0 ;    H93-   C56-   C59-   O46
  1893  1888  1891  1897   9   0.00   1.04600   1 ;    H93-   C56-   C59-   O46
  1893  1888  1891  1907   9   0.00   0.00000   0 ;    H93-   C56-   C59-   O50
  1893  1888  1891  1907   9   0.00   1.04600   1 ;    H93-   C56-   C59-   O50
  1893  1888  1903  1904   9   0.00   0.47279   3 ;    H93-   C56-   O48-  H100
  1894  1890  1887  1896   9   0.00   0.65084   3 ;    H94-   C58-   C55-   H96
  1894  1890  1898  1899   9   0.00   0.65084   3 ;    H94-   C58-   C60-   H97
  1894  1890  1898  1900   9   0.00   0.65084   3 ;    H94-   C58-   C60-   H98
  1894  1890  1898  1901   9   0.00   0.00000   0 ;    H94-   C58-   C60-   O47
  1894  1890  1898  1901   9   0.00   1.04600   1 ;    H94-   C58-   C60-   O47
  1895  1891  1888  1903   9   0.00   0.65084   3 ;    H95-   C59-   C56-   O48
  1895  1891  1907  1908   9   0.00   0.69733   3 ;    H95-   C59-   O50-  H102
  1896  1887  1889  1905   9   0.00   0.00000   0 ;    H96-   C55-   C57-   O49
  1896  1887  1889  1905   9   0.00   1.04600   1 ;    H96-   C55-   C57-   O49
  1896  1887  1890  1897   9   0.00   0.00000   0 ;    H96-   C55-   C58-   O46
  1896  1887  1890  1897   9   0.00   1.04600   1 ;    H96-   C55-   C58-   O46
  1896  1887  1890  1898   9   0.00   0.65084   3 ;    H96-   C55-   C58-   C60
  1897  1890  1898  1899   9   0.00   0.00000   0 ;    O46-   C58-   C60-   H97
  1897  1890  1898  1899   9   0.00   1.04600   1 ;    O46-   C58-   C60-   H97
  1897  1890  1898  1900   9   0.00   0.00000   0 ;    O46-   C58-   C60-   H98
  1897  1890  1898  1900   9   0.00   1.04600   1 ;    O46-   C58-   C60-   H98
  1897  1890  1898  1901   9   0.00   0.00000   0 ;    O46-   C58-   C60-   O47
  1897  1890  1898  1901   9   0.00   4.22584   3 ;    O46-   C58-   C60-   O47
  1897  1890  1898  1901   9   180.00   0.08368   1 ;    O46-   C58-   C60-   O47
  1897  1891  1888  1903   9   0.00   0.00000   0 ;    O46-   C59-   C56-   O48
  1897  1891  1888  1903   9   0.00   4.22584   3 ;    O46-   C59-   C56-   O48
  1897  1891  1888  1903   9   180.00   0.08368   1 ;    O46-   C59-   C56-   O48
  1897  1891  1907  1908   9   0.00   0.69733   3 ;    O46-   C59-   O50-  H102
  1899  1898  1901  1902   9   0.00   0.47279   3 ;    H97-   C60-   O47-   H99
  1900  1898  1901  1902   9   0.00   0.47279   3 ;    H98-   C60-   O47-   H99
  1903  1888  1889  1905   9   0.00   3.76560   3 ;    O48-   C56-   C57-   O49
  1903  1888  1889  1905   9   0.00   4.72792   2 ;    O48-   C56-   C57-   O49
  1903  1888  1891  1907   9   0.00   3.76560   3 ;    O48-   C56-   C59-   O50
  1903  1888  1891  1907   9   0.00   4.72792   2 ;    O48-   C56-   C59-   O50
  1909  1910  1912  1919   9   0.00   0.65084   3 ;     H1-    C1-    C3-    H6
  1909  1910  1912  1924   9   0.00   0.00000   0 ;     H1-    C1-    C3-    O3
  1909  1910  1912  1924   9   0.00   1.04600   1 ;     H1-    C1-    C3-    O3
  1909  1910  1912  1925   9   0.00   0.33472   3 ;     H1-    C1-    C3-    C6
  1909  1910  1913  1914   9   0.00   0.33472   3 ;     H1-    C1-    C4-    C5
  1909  1910  1913  1917   9   0.00   0.65084   3 ;     H1-    C1-    C4-    H4
  1909  1910  1913  1920   9   0.00   0.75312   3 ;     H1-    C1-    C4-    O1
  1909  1910  1913  1920   9   0.00   2.13384   1 ;     H1-    C1-    C4-    O1
  1910  1912  1924  1911   9   0.00   0.00000   0 ;     C1-    C3-    O3-    C2
  1910  1912  1924  1911   9   0.00   0.66944   2 ;     C1-    C3-    O3-    C2
  1910  1912  1924  1911   9   0.00   1.00416   3 ;     C1-    C3-    O3-    C2
  1910  1912  1925  1926   9   0.00   0.65084   3 ;     C1-    C3-    C6-    H9
  1910  1912  1925  1927   9   0.00   0.65084   3 ;     C1-    C3-    C6-   H10
  1910  1912  1925  1928   9   0.00   0.87864   3 ;     C1-    C3-    C6-    O4
  1910  1913  1914  1911   9   0.00   0.46024   1 ;     C1-    C4-    C5-    C2
  1910  1913  1914  1911   9   0.00   0.54392   3 ;     C1-    C4-    C5-    C2
  1910  1913  1914  1911   9   180.00   1.21336   2 ;     C1-    C4-    C5-    C2
  1910  1913  1914  1918   9   0.00   0.65084   3 ;     C1-    C4-    C5-    H5
  1910  1913  1914  1922   9   0.00   0.87864   3 ;     C1-    C4-    C5-    O2
  1910  1913  1920  1921   9   0.00   0.00000   0 ;     C1-    C4-    O1-    H7
  1911  1914  1913  1917   9   0.00   0.65084   3 ;     C2-    C5-    C4-    H4
  1911  1914  1913  1920   9   0.00   0.87864   3 ;     C2-    C5-    C4-    O1
  1911  1914  1922  1923   9   0.00   0.00000   0 ;     C2-    C5-    O2-    H8
  1911  1924  1912  1919   9   0.00   1.41001   3 ;     C2-    O3-    C3-    H6
  1911  1924  1912  1925   9   0.00   0.00000   0 ;     C2-    O3-    C3-    C6
  1911  1924  1912  1925   9   0.00   0.66944   2 ;     C2-    O3-    C3-    C6
  1911  1924  1912  1925   9   0.00   1.00416   3 ;     C2-    O3-    C3-    C6
  1911  1930  1931  1933   9   0.00   0.00000   0 ;     C2-    O5-    C7-    C9
  1911  1930  1931  1933   9   0.00   0.66944   2 ;     C2-    O5-    C7-    C9
  1911  1930  1931  1933   9   0.00   1.00416   3 ;     C2-    O5-    C7-    C9
  1911  1930  1931  1934   9   0.00   0.00000   0 ;     C2-    O5-    C7-   C10
  1911  1930  1931  1934   9   0.00   0.66944   2 ;     C2-    O5-    C7-   C10
  1911  1930  1931  1934   9   0.00   1.00416   3 ;     C2-    O5-    C7-   C10
  1911  1930  1931  1940   9   0.00   1.41001   3 ;     C2-    O5-    C7-   H16
  1912  1910  1913  1914   9   0.00   0.46024   1 ;     C3-    C1-    C4-    C5
  1912  1910  1913  1914   9   0.00   0.54392   3 ;     C3-    C1-    C4-    C5
  1912  1910  1913  1914   9   180.00   1.21336   2 ;     C3-    C1-    C4-    C5
  1912  1910  1913  1917   9   0.00   0.65084   3 ;     C3-    C1-    C4-    H4
  1912  1910  1913  1920   9   0.00   0.87864   3 ;     C3-    C1-    C4-    O1
  1912  1924  1911  1914   9   0.00   0.00000   0 ;     C3-    O3-    C2-    C5
  1912  1924  1911  1914   9   0.00   0.66944   2 ;     C3-    O3-    C2-    C5
  1912  1924  1911  1914   9   0.00   1.00416   3 ;     C3-    O3-    C2-    C5
  1912  1924  1911  1915   9   0.00   1.60387   3 ;     C3-    O3-    C2-    H2
  1912  1924  1911  1930   9   0.00   5.18816   2 ;     C3-    O3-    C2-    O5
  1912  1924  1911  1930   9   180.00   0.00000   3 ;     C3-    O3-    C2-    O5
  1912  1924  1911  1930   9   180.00   4.05848   1 ;     C3-    O3-    C2-    O5
  1912  1925  1928  1929   9   0.00   0.00000   0 ;     C3-    C6-    O4-   H11
  1913  1910  1912  1919   9   0.00   0.65084   3 ;     C4-    C1-    C3-    H6
  1913  1910  1912  1924   9   0.00   0.65084   3 ;     C4-    C1-    C3-    O3
  1913  1910  1912  1925   9   0.00   0.46024   1 ;     C4-    C1-    C3-    C6
  1913  1910  1912  1925   9   0.00   0.54392   3 ;     C4-    C1-    C3-    C6
  1913  1910  1912  1925   9   180.00   1.21336   2 ;     C4-    C1-    C3-    C6
  1913  1914  1911  1915   9   0.00   0.65084   3 ;     C4-    C5-    C2-    H2
  1913  1914  1911  1924   9   0.00   0.65084   3 ;     C4-    C5-    C2-    O3
  1913  1914  1911  1930   9   0.00   0.65084   3 ;     C4-    C5-    C2-    O5
  1913  1914  1922  1923   9   0.00   0.00000   0 ;     C4-    C5-    O2-    H8
  1914  1911  1930  1931   9   0.00   0.00000   0 ;     C5-    C2-    O5-    C7
  1914  1911  1930  1931   9   0.00   0.66944   2 ;     C5-    C2-    O5-    C7
  1914  1911  1930  1931   9   0.00   1.00416   3 ;     C5-    C2-    O5-    C7
  1914  1913  1910  1916   9   0.00   0.33472   3 ;     C5-    C4-    C1-    H3
  1914  1913  1920  1921   9   0.00   0.00000   0 ;     C5-    C4-    O1-    H7
  1915  1911  1914  1918   9   0.00   0.65084   3 ;     H2-    C2-    C5-    H5
  1915  1911  1914  1922   9   0.00   0.65084   3 ;     H2-    C2-    C5-    O2
  1915  1911  1930  1931   9   0.00   1.60387   3 ;     H2-    C2-    O5-    C7
  1916  1910  1912  1919   9   0.00   0.65084   3 ;     H3-    C1-    C3-    H6
  1916  1910  1912  1924   9   0.00   0.00000   0 ;     H3-    C1-    C3-    O3
  1916  1910  1912  1924   9   0.00   1.04600   1 ;     H3-    C1-    C3-    O3
  1916  1910  1912  1925   9   0.00   0.33472   3 ;     H3-    C1-    C3-    C6
  1916  1910  1913  1917   9   0.00   0.65084   3 ;     H3-    C1-    C4-    H4
  1916  1910  1913  1920   9   0.00   0.75312   3 ;     H3-    C1-    C4-    O1
  1916  1910  1913  1920   9   0.00   2.13384   1 ;     H3-    C1-    C4-    O1
  1917  1913  1914  1918   9   0.00   0.65084   3 ;     H4-    C4-    C5-    H5
  1917  1913  1914  1922   9   0.00   0.00000   0 ;     H4-    C4-    C5-    O2
  1917  1913  1914  1922   9   0.00   1.04600   1 ;     H4-    C4-    C5-    O2
  1917  1913  1920  1921   9   0.00   0.47279   3 ;     H4-    C4-    O1-    H7
  1918  1914  1911  1924   9   0.00   0.00000   0 ;     H5-    C5-    C2-    O3
  1918  1914  1911  1924   9   0.00   1.04600   1 ;     H5-    C5-    C2-    O3
  1918  1914  1911  1930   9   0.00   0.00000   0 ;     H5-    C5-    C2-    O5
  1918  1914  1911  1930   9   0.00   1.04600   1 ;     H5-    C5-    C2-    O5
  1918  1914  1913  1920   9   0.00   0.00000   0 ;     H5-    C5-    C4-    O1
  1918  1914  1913  1920   9   0.00   1.04600   1 ;     H5-    C5-    C4-    O1
  1918  1914  1922  1923   9   0.00   0.47279   3 ;     H5-    C5-    O2-    H8
  1919  1912  1925  1926   9   0.00   0.65084   3 ;     H6-    C3-    C6-    H9
  1919  1912  1925  1927   9   0.00   0.65084   3 ;     H6-    C3-    C6-   H10
  1919  1912  1925  1928   9   0.00   0.00000   0 ;     H6-    C3-    C6-    O4
  1919  1912  1925  1928   9   0.00   1.04600   1 ;     H6-    C3-    C6-    O4
  1920  1913  1914  1922   9   0.00   3.76560   3 ;     O1-    C4-    C5-    O2
  1920  1913  1914  1922   9   0.00   4.72792   2 ;     O1-    C4-    C5-    O2
  1922  1914  1911  1924   9   0.00   0.00000   0 ;     O2-    C5-    C2-    O3
  1922  1914  1911  1924   9   0.00   4.22584   3 ;     O2-    C5-    C2-    O3
  1922  1914  1911  1924   9   180.00   0.08368   1 ;     O2-    C5-    C2-    O3
  1922  1914  1911  1930   9   0.00   0.00000   0 ;     O2-    C5-    C2-    O5
  1922  1914  1911  1930   9   0.00   4.22584   3 ;     O2-    C5-    C2-    O5
  1922  1914  1911  1930   9   180.00   0.08368   1 ;     O2-    C5-    C2-    O5
  1924  1911  1930  1931   9   0.00   5.18816   2 ;     O3-    C2-    O5-    C7
  1924  1911  1930  1931   9   180.00   0.00000   3 ;     O3-    C2-    O5-    C7
  1924  1911  1930  1931   9   180.00   4.05848   1 ;     O3-    C2-    O5-    C7
  1924  1912  1925  1926   9   0.00   0.00000   0 ;     O3-    C3-    C6-    H9
  1924  1912  1925  1926   9   0.00   1.04600   1 ;     O3-    C3-    C6-    H9
  1924  1912  1925  1927   9   0.00   0.00000   0 ;     O3-    C3-    C6-   H10
  1924  1912  1925  1927   9   0.00   1.04600   1 ;     O3-    C3-    C6-   H10
  1924  1912  1925  1928   9   0.00   0.00000   0 ;     O3-    C3-    C6-    O4
  1924  1912  1925  1928   9   0.00   4.22584   3 ;     O3-    C3-    C6-    O4
  1924  1912  1925  1928   9   180.00   0.08368   1 ;     O3-    C3-    C6-    O4
  1926  1925  1928  1929   9   0.00   0.47279   3 ;     H9-    C6-    O4-   H11
  1927  1925  1928  1929   9   0.00   0.47279   3 ;    H10-    C6-    O4-   H11
  1930  1931  1933  1932   9   0.00   0.65084   3 ;     O5-    C7-    C9-    C8
  1930  1931  1933  1936   9   0.00   0.00000   0 ;     O5-    C7-    C9-   H12
  1930  1931  1933  1936   9   0.00   1.04600   1 ;     O5-    C7-    C9-   H12
  1930  1931  1933  1949   9   0.00   0.00000   0 ;     O5-    C7-    C9-    O9
  1930  1931  1933  1949   9   0.00   4.22584   3 ;     O5-    C7-    C9-    O9
  1930  1931  1933  1949   9   180.00   0.08368   1 ;     O5-    C7-    C9-    O9
  1930  1931  1934  1938   9   0.00   0.00000   0 ;     O5-    C7-   C10-   H14
  1930  1931  1934  1938   9   0.00   1.04600   1 ;     O5-    C7-   C10-   H14
  1930  1931  1934  1941   9   0.00   0.00000   0 ;     O5-    C7-   C10-    O6
  1930  1931  1934  1941   9   180.00   0.00000   2 ;     O5-    C7-   C10-    O6
  1930  1931  1934  1941   9   180.00   0.71128   1 ;     O5-    C7-   C10-    O6
  1930  1931  1934  1942   9   0.00   0.65084   3 ;     O5-    C7-   C10-   C12
  1931  1933  1932  1935   9   0.00   0.46024   1 ;     C7-    C9-    C8-   C11
  1931  1933  1932  1935   9   0.00   0.54392   3 ;     C7-    C9-    C8-   C11
  1931  1933  1932  1935   9   180.00   1.21336   2 ;     C7-    C9-    C8-   C11
  1931  1933  1932  1937   9   0.00   0.65084   3 ;     C7-    C9-    C8-   H13
  1931  1933  1932  1947   9   0.00   0.87864   3 ;     C7-    C9-    C8-    O8
  1931  1933  1949  1950   9   0.00   0.00000   0 ;     C7-    C9-    O9-   H21
  1931  1934  1941  1935   9   0.00   0.00000   0 ;     C7-   C10-    O6-   C11
  1931  1934  1941  1935   9   0.00   0.66944   2 ;     C7-   C10-    O6-   C11
  1931  1934  1941  1935   9   0.00   1.00416   3 ;     C7-   C10-    O6-   C11
  1931  1934  1942  1943   9   0.00   0.65084   3 ;     C7-   C10-   C12-   H17
  1931  1934  1942  1944   9   0.00   0.65084   3 ;     C7-   C10-   C12-   H18
  1931  1934  1942  1945   9   0.00   0.87864   3 ;     C7-   C10-   C12-    O7
  1932  1933  1931  1934   9   0.00   0.46024   1 ;     C8-    C9-    C7-   C10
  1932  1933  1931  1934   9   0.00   0.54392   3 ;     C8-    C9-    C7-   C10
  1932  1933  1931  1934   9   180.00   1.21336   2 ;     C8-    C9-    C7-   C10
  1932  1933  1931  1940   9   0.00   0.65084   3 ;     C8-    C9-    C7-   H16
  1932  1933  1949  1950   9   0.00   0.00000   0 ;     C8-    C9-    O9-   H21
  1932  1935  1941  1934   9   0.00   0.00000   0 ;     C8-   C11-    O6-   C10
  1932  1935  1941  1934   9   0.00   0.66944   2 ;     C8-   C11-    O6-   C10
  1932  1935  1941  1934   9   0.00   1.00416   3 ;     C8-   C11-    O6-   C10
  1932  1935  1951  1952   9   0.00   0.00000   0 ;     C8-   C11-   O10-   C13
  1932  1935  1951  1952   9   0.00   0.66944   2 ;     C8-   C11-   O10-   C13
  1932  1935  1951  1952   9   0.00   1.00416   3 ;     C8-   C11-   O10-   C13
  1933  1931  1934  1938   9   0.00   0.65084   3 ;     C9-    C7-   C10-   H14
  1933  1931  1934  1941   9   0.00   0.65084   3 ;     C9-    C7-   C10-    O6
  1933  1931  1934  1942   9   0.00   0.46024   1 ;     C9-    C7-   C10-   C12
  1933  1931  1934  1942   9   0.00   0.54392   3 ;     C9-    C7-   C10-   C12
  1933  1931  1934  1942   9   180.00   1.21336   2 ;     C9-    C7-   C10-   C12
  1933  1932  1935  1939   9   0.00   0.65084   3 ;     C9-    C8-   C11-   H15
  1933  1932  1935  1941   9   0.00   0.65084   3 ;     C9-    C8-   C11-    O6
  1933  1932  1935  1951   9   0.00   0.65084   3 ;     C9-    C8-   C11-   O10
  1933  1932  1947  1948   9   0.00   0.00000   0 ;     C9-    C8-    O8-   H20
  1934  1931  1933  1936   9   0.00   0.65084   3 ;    C10-    C7-    C9-   H12
  1934  1931  1933  1949   9   0.00   0.87864   3 ;    C10-    C7-    C9-    O9
  1934  1941  1935  1939   9   0.00   1.60387   3 ;    C10-    O6-   C11-   H15
  1934  1941  1935  1951   9   0.00   5.18816   2 ;    C10-    O6-   C11-   O10
  1934  1941  1935  1951   9   180.00   0.00000   3 ;    C10-    O6-   C11-   O10
  1934  1941  1935  1951   9   180.00   4.05848   1 ;    C10-    O6-   C11-   O10
  1934  1942  1945  1946   9   0.00   0.00000   0 ;    C10-   C12-    O7-   H19
  1935  1932  1933  1936   9   0.00   0.65084   3 ;    C11-    C8-    C9-   H12
  1935  1932  1933  1949   9   0.00   0.87864   3 ;    C11-    C8-    C9-    O9
  1935  1932  1947  1948   9   0.00   0.00000   0 ;    C11-    C8-    O8-   H20
  1935  1941  1934  1938   9   0.00   1.41001   3 ;    C11-    O6-   C10-   H14
  1935  1941  1934  1942   9   0.00   0.00000   0 ;    C11-    O6-   C10-   C12
  1935  1941  1934  1942   9   0.00   0.66944   2 ;    C11-    O6-   C10-   C12
  1935  1941  1934  1942   9   0.00   1.00416   3 ;    C11-    O6-   C10-   C12
  1935  1951  1952  1954   9   0.00   0.00000   0 ;    C11-   O10-   C13-   C15
  1935  1951  1952  1954   9   0.00   0.66944   2 ;    C11-   O10-   C13-   C15
  1935  1951  1952  1954   9   0.00   1.00416   3 ;    C11-   O10-   C13-   C15
  1935  1951  1952  1955   9   0.00   0.00000   0 ;    C11-   O10-   C13-   C16
  1935  1951  1952  1955   9   0.00   0.66944   2 ;    C11-   O10-   C13-   C16
  1935  1951  1952  1955   9   0.00   1.00416   3 ;    C11-   O10-   C13-   C16
  1935  1951  1952  1958   9   0.00   1.41001   3 ;    C11-   O10-   C13-   H23
  1936  1933  1931  1940   9   0.00   0.65084   3 ;    H12-    C9-    C7-   H16
  1936  1933  1932  1937   9   0.00   0.65084   3 ;    H12-    C9-    C8-   H13
  1936  1933  1932  1947   9   0.00   0.00000   0 ;    H12-    C9-    C8-    O8
  1936  1933  1932  1947   9   0.00   1.04600   1 ;    H12-    C9-    C8-    O8
  1936  1933  1949  1950   9   0.00   0.47279   3 ;    H12-    C9-    O9-   H21
  1937  1932  1933  1949   9   0.00   0.00000   0 ;    H13-    C8-    C9-    O9
  1937  1932  1933  1949   9   0.00   1.04600   1 ;    H13-    C8-    C9-    O9
  1937  1932  1935  1939   9   0.00   0.65084   3 ;    H13-    C8-   C11-   H15
  1937  1932  1935  1941   9   0.00   0.00000   0 ;    H13-    C8-   C11-    O6
  1937  1932  1935  1941   9   0.00   1.04600   1 ;    H13-    C8-   C11-    O6
  1937  1932  1935  1951   9   0.00   0.00000   0 ;    H13-    C8-   C11-   O10
  1937  1932  1935  1951   9   0.00   1.04600   1 ;    H13-    C8-   C11-   O10
  1937  1932  1947  1948   9   0.00   0.47279   3 ;    H13-    C8-    O8-   H20
  1938  1934  1931  1940   9   0.00   0.65084   3 ;    H14-   C10-    C7-   H16
  1938  1934  1942  1943   9   0.00   0.65084   3 ;    H14-   C10-   C12-   H17
  1938  1934  1942  1944   9   0.00   0.65084   3 ;    H14-   C10-   C12-   H18
  1938  1934  1942  1945   9   0.00   0.00000   0 ;    H14-   C10-   C12-    O7
  1938  1934  1942  1945   9   0.00   1.04600   1 ;    H14-   C10-   C12-    O7
  1939  1935  1932  1947   9   0.00   0.65084   3 ;    H15-   C11-    C8-    O8
  1939  1935  1951  1952   9   0.00   1.60387   3 ;    H15-   C11-   O10-   C13
  1940  1931  1933  1949   9   0.00   0.00000   0 ;    H16-    C7-    C9-    O9
  1940  1931  1933  1949   9   0.00   1.04600   1 ;    H16-    C7-    C9-    O9
  1940  1931  1934  1941   9   0.00   0.00000   0 ;    H16-    C7-   C10-    O6
  1940  1931  1934  1941   9   0.00   1.04600   1 ;    H16-    C7-   C10-    O6
  1940  1931  1934  1942   9   0.00   0.65084   3 ;    H16-    C7-   C10-   C12
  1941  1934  1942  1943   9   0.00   0.00000   0 ;     O6-   C10-   C12-   H17
  1941  1934  1942  1943   9   0.00   1.04600   1 ;     O6-   C10-   C12-   H17
  1941  1934  1942  1944   9   0.00   0.00000   0 ;     O6-   C10-   C12-   H18
  1941  1934  1942  1944   9   0.00   1.04600   1 ;     O6-   C10-   C12-   H18
  1941  1934  1942  1945   9   0.00   0.00000   0 ;     O6-   C10-   C12-    O7
  1941  1934  1942  1945   9   0.00   4.22584   3 ;     O6-   C10-   C12-    O7
  1941  1934  1942  1945   9   180.00   0.08368   1 ;     O6-   C10-   C12-    O7
  1941  1935  1932  1947   9   0.00   0.00000   0 ;     O6-   C11-    C8-    O8
  1941  1935  1932  1947   9   0.00   4.22584   3 ;     O6-   C11-    C8-    O8
  1941  1935  1932  1947   9   180.00   0.08368   1 ;     O6-   C11-    C8-    O8
  1941  1935  1951  1952   9   0.00   5.18816   2 ;     O6-   C11-   O10-   C13
  1941  1935  1951  1952   9   180.00   0.00000   3 ;     O6-   C11-   O10-   C13
  1941  1935  1951  1952   9   180.00   4.05848   1 ;     O6-   C11-   O10-   C13
  1943  1942  1945  1946   9   0.00   0.47279   3 ;    H17-   C12-    O7-   H19
  1944  1942  1945  1946   9   0.00   0.47279   3 ;    H18-   C12-    O7-   H19
  1947  1932  1933  1949   9   0.00   3.76560   3 ;     O8-    C8-    C9-    O9
  1947  1932  1933  1949   9   0.00   4.72792   2 ;     O8-    C8-    C9-    O9
  1947  1932  1935  1951   9   0.00   0.00000   0 ;     O8-    C8-   C11-   O10
  1947  1932  1935  1951   9   0.00   4.22584   3 ;     O8-    C8-   C11-   O10
  1947  1932  1935  1951   9   180.00   0.08368   1 ;     O8-    C8-   C11-   O10
  1951  1952  1954  1961   9   0.00   0.00000   0 ;    O10-   C13-   C15-   H26
  1951  1952  1954  1961   9   0.00   1.04600   1 ;    O10-   C13-   C15-   H26
  1951  1952  1954  1966   9   0.00   0.00000   0 ;    O10-   C13-   C15-   O13
  1951  1952  1954  1966   9   180.00   0.00000   2 ;    O10-   C13-   C15-   O13
  1951  1952  1954  1966   9   180.00   0.71128   1 ;    O10-   C13-   C15-   O13
  1951  1952  1954  1967   9   0.00   0.65084   3 ;    O10-   C13-   C15-   C18
  1951  1952  1955  1956   9   0.00   0.65084   3 ;    O10-   C13-   C16-   C17
  1951  1952  1955  1959   9   0.00   0.00000   0 ;    O10-   C13-   C16-   H24
  1951  1952  1955  1959   9   0.00   1.04600   1 ;    O10-   C13-   C16-   H24
  1951  1952  1955  1962   9   0.00   0.00000   0 ;    O10-   C13-   C16-   O11
  1951  1952  1955  1962   9   0.00   4.22584   3 ;    O10-   C13-   C16-   O11
  1951  1952  1955  1962   9   180.00   0.08368   1 ;    O10-   C13-   C16-   O11
  1952  1954  1966  1953   9   0.00   0.00000   0 ;    C13-   C15-   O13-   C14
  1952  1954  1966  1953   9   0.00   0.66944   2 ;    C13-   C15-   O13-   C14
  1952  1954  1966  1953   9   0.00   1.00416   3 ;    C13-   C15-   O13-   C14
  1952  1954  1967  1968   9   0.00   0.65084   3 ;    C13-   C15-   C18-   H29
  1952  1954  1967  1969   9   0.00   0.65084   3 ;    C13-   C15-   C18-   H30
  1952  1954  1967  1970   9   0.00   0.87864   3 ;    C13-   C15-   C18-   O14
  1952  1955  1956  1953   9   0.00   0.46024   1 ;    C13-   C16-   C17-   C14
  1952  1955  1956  1953   9   0.00   0.54392   3 ;    C13-   C16-   C17-   C14
  1952  1955  1956  1953   9   180.00   1.21336   2 ;    C13-   C16-   C17-   C14
  1952  1955  1956  1960   9   0.00   0.65084   3 ;    C13-   C16-   C17-   H25
  1952  1955  1956  1964   9   0.00   0.87864   3 ;    C13-   C16-   C17-   O12
  1952  1955  1962  1963   9   0.00   0.00000   0 ;    C13-   C16-   O11-   H27
  1953  1956  1955  1959   9   0.00   0.65084   3 ;    C14-   C17-   C16-   H24
  1953  1956  1955  1962   9   0.00   0.87864   3 ;    C14-   C17-   C16-   O11
  1953  1956  1964  1965   9   0.00   0.00000   0 ;    C14-   C17-   O12-   H28
  1953  1966  1954  1961   9   0.00   1.41001   3 ;    C14-   O13-   C15-   H26
  1953  1966  1954  1967   9   0.00   0.00000   0 ;    C14-   O13-   C15-   C18
  1953  1966  1954  1967   9   0.00   0.66944   2 ;    C14-   O13-   C15-   C18
  1953  1966  1954  1967   9   0.00   1.00416   3 ;    C14-   O13-   C15-   C18
  1953  1972  1973  1975   9   0.00   0.00000   0 ;    C14-   O15-   C19-   C21
  1953  1972  1973  1975   9   0.00   0.66944   2 ;    C14-   O15-   C19-   C21
  1953  1972  1973  1975   9   0.00   1.00416   3 ;    C14-   O15-   C19-   C21
  1953  1972  1973  1976   9   0.00   0.00000   0 ;    C14-   O15-   C19-   C22
  1953  1972  1973  1976   9   0.00   0.66944   2 ;    C14-   O15-   C19-   C22
  1953  1972  1973  1976   9   0.00   1.00416   3 ;    C14-   O15-   C19-   C22
  1953  1972  1973  1982   9   0.00   1.41001   3 ;    C14-   O15-   C19-   H36
  1954  1952  1955  1956   9   0.00   0.46024   1 ;    C15-   C13-   C16-   C17
  1954  1952  1955  1956   9   0.00   0.54392   3 ;    C15-   C13-   C16-   C17
  1954  1952  1955  1956   9   180.00   1.21336   2 ;    C15-   C13-   C16-   C17
  1954  1952  1955  1959   9   0.00   0.65084   3 ;    C15-   C13-   C16-   H24
  1954  1952  1955  1962   9   0.00   0.87864   3 ;    C15-   C13-   C16-   O11
  1954  1966  1953  1956   9   0.00   0.00000   0 ;    C15-   O13-   C14-   C17
  1954  1966  1953  1956   9   0.00   0.66944   2 ;    C15-   O13-   C14-   C17
  1954  1966  1953  1956   9   0.00   1.00416   3 ;    C15-   O13-   C14-   C17
  1954  1966  1953  1957   9   0.00   1.60387   3 ;    C15-   O13-   C14-   H22
  1954  1966  1953  1972   9   0.00   5.18816   2 ;    C15-   O13-   C14-   O15
  1954  1966  1953  1972   9   180.00   0.00000   3 ;    C15-   O13-   C14-   O15
  1954  1966  1953  1972   9   180.00   4.05848   1 ;    C15-   O13-   C14-   O15
  1954  1967  1970  1971   9   0.00   0.00000   0 ;    C15-   C18-   O14-   H31
  1955  1952  1954  1961   9   0.00   0.65084   3 ;    C16-   C13-   C15-   H26
  1955  1952  1954  1966   9   0.00   0.65084   3 ;    C16-   C13-   C15-   O13
  1955  1952  1954  1967   9   0.00   0.46024   1 ;    C16-   C13-   C15-   C18
  1955  1952  1954  1967   9   0.00   0.54392   3 ;    C16-   C13-   C15-   C18
  1955  1952  1954  1967   9   180.00   1.21336   2 ;    C16-   C13-   C15-   C18
  1955  1956  1953  1957   9   0.00   0.65084   3 ;    C16-   C17-   C14-   H22
  1955  1956  1953  1966   9   0.00   0.65084   3 ;    C16-   C17-   C14-   O13
  1955  1956  1953  1972   9   0.00   0.65084   3 ;    C16-   C17-   C14-   O15
  1955  1956  1964  1965   9   0.00   0.00000   0 ;    C16-   C17-   O12-   H28
  1956  1953  1972  1973   9   0.00   0.00000   0 ;    C17-   C14-   O15-   C19
  1956  1953  1972  1973   9   0.00   0.66944   2 ;    C17-   C14-   O15-   C19
  1956  1953  1972  1973   9   0.00   1.00416   3 ;    C17-   C14-   O15-   C19
  1956  1955  1952  1958   9   0.00   0.65084   3 ;    C17-   C16-   C13-   H23
  1956  1955  1962  1963   9   0.00   0.00000   0 ;    C17-   C16-   O11-   H27
  1957  1953  1956  1960   9   0.00   0.65084   3 ;    H22-   C14-   C17-   H25
  1957  1953  1956  1964   9   0.00   0.65084   3 ;    H22-   C14-   C17-   O12
  1957  1953  1972  1973   9   0.00   1.60387   3 ;    H22-   C14-   O15-   C19
  1958  1952  1954  1961   9   0.00   0.65084   3 ;    H23-   C13-   C15-   H26
  1958  1952  1954  1966   9   0.00   0.00000   0 ;    H23-   C13-   C15-   O13
  1958  1952  1954  1966   9   0.00   1.04600   1 ;    H23-   C13-   C15-   O13
  1958  1952  1954  1967   9   0.00   0.65084   3 ;    H23-   C13-   C15-   C18
  1958  1952  1955  1959   9   0.00   0.65084   3 ;    H23-   C13-   C16-   H24
  1958  1952  1955  1962   9   0.00   0.00000   0 ;    H23-   C13-   C16-   O11
  1958  1952  1955  1962   9   0.00   1.04600   1 ;    H23-   C13-   C16-   O11
  1959  1955  1956  1960   9   0.00   0.65084   3 ;    H24-   C16-   C17-   H25
  1959  1955  1956  1964   9   0.00   0.00000   0 ;    H24-   C16-   C17-   O12
  1959  1955  1956  1964   9   0.00   1.04600   1 ;    H24-   C16-   C17-   O12
  1959  1955  1962  1963   9   0.00   0.47279   3 ;    H24-   C16-   O11-   H27
  1960  1956  1953  1966   9   0.00   0.00000   0 ;    H25-   C17-   C14-   O13
  1960  1956  1953  1966   9   0.00   1.04600   1 ;    H25-   C17-   C14-   O13
  1960  1956  1953  1972   9   0.00   0.00000   0 ;    H25-   C17-   C14-   O15
  1960  1956  1953  1972   9   0.00   1.04600   1 ;    H25-   C17-   C14-   O15
  1960  1956  1955  1962   9   0.00   0.00000   0 ;    H25-   C17-   C16-   O11
  1960  1956  1955  1962   9   0.00   1.04600   1 ;    H25-   C17-   C16-   O11
  1960  1956  1964  1965   9   0.00   0.47279   3 ;    H25-   C17-   O12-   H28
  1961  1954  1967  1968   9   0.00   0.65084   3 ;    H26-   C15-   C18-   H29
  1961  1954  1967  1969   9   0.00   0.65084   3 ;    H26-   C15-   C18-   H30
  1961  1954  1967  1970   9   0.00   0.00000   0 ;    H26-   C15-   C18-   O14
  1961  1954  1967  1970   9   0.00   1.04600   1 ;    H26-   C15-   C18-   O14
  1962  1955  1956  1964   9   0.00   3.76560   3 ;    O11-   C16-   C17-   O12
  1962  1955  1956  1964   9   0.00   4.72792   2 ;    O11-   C16-   C17-   O12
  1964  1956  1953  1966   9   0.00   0.00000   0 ;    O12-   C17-   C14-   O13
  1964  1956  1953  1966   9   0.00   4.22584   3 ;    O12-   C17-   C14-   O13
  1964  1956  1953  1966   9   180.00   0.08368   1 ;    O12-   C17-   C14-   O13
  1964  1956  1953  1972   9   0.00   0.00000   0 ;    O12-   C17-   C14-   O15
  1964  1956  1953  1972   9   0.00   4.22584   3 ;    O12-   C17-   C14-   O15
  1964  1956  1953  1972   9   180.00   0.08368   1 ;    O12-   C17-   C14-   O15
  1966  1953  1972  1973   9   0.00   5.18816   2 ;    O13-   C14-   O15-   C19
  1966  1953  1972  1973   9   180.00   0.00000   3 ;    O13-   C14-   O15-   C19
  1966  1953  1972  1973   9   180.00   4.05848   1 ;    O13-   C14-   O15-   C19
  1966  1954  1967  1968   9   0.00   0.00000   0 ;    O13-   C15-   C18-   H29
  1966  1954  1967  1968   9   0.00   1.04600   1 ;    O13-   C15-   C18-   H29
  1966  1954  1967  1969   9   0.00   0.00000   0 ;    O13-   C15-   C18-   H30
  1966  1954  1967  1969   9   0.00   1.04600   1 ;    O13-   C15-   C18-   H30
  1966  1954  1967  1970   9   0.00   0.00000   0 ;    O13-   C15-   C18-   O14
  1966  1954  1967  1970   9   0.00   4.22584   3 ;    O13-   C15-   C18-   O14
  1966  1954  1967  1970   9   180.00   0.08368   1 ;    O13-   C15-   C18-   O14
  1968  1967  1970  1971   9   0.00   0.47279   3 ;    H29-   C18-   O14-   H31
  1969  1967  1970  1971   9   0.00   0.47279   3 ;    H30-   C18-   O14-   H31
  1972  1973  1975  1974   9   0.00   0.65084   3 ;    O15-   C19-   C21-   C20
  1972  1973  1975  1978   9   0.00   0.00000   0 ;    O15-   C19-   C21-   H32
  1972  1973  1975  1978   9   0.00   1.04600   1 ;    O15-   C19-   C21-   H32
  1972  1973  1975  1991   9   0.00   0.00000   0 ;    O15-   C19-   C21-   O19
  1972  1973  1975  1991   9   0.00   4.22584   3 ;    O15-   C19-   C21-   O19
  1972  1973  1975  1991   9   180.00   0.08368   1 ;    O15-   C19-   C21-   O19
  1972  1973  1976  1980   9   0.00   0.00000   0 ;    O15-   C19-   C22-   H34
  1972  1973  1976  1980   9   0.00   1.04600   1 ;    O15-   C19-   C22-   H34
  1972  1973  1976  1983   9   0.00   0.00000   0 ;    O15-   C19-   C22-   O16
  1972  1973  1976  1983   9   180.00   0.00000   2 ;    O15-   C19-   C22-   O16
  1972  1973  1976  1983   9   180.00   0.71128   1 ;    O15-   C19-   C22-   O16
  1972  1973  1976  1984   9   0.00   0.65084   3 ;    O15-   C19-   C22-   C24
  1973  1975  1974  1977   9   0.00   0.46024   1 ;    C19-   C21-   C20-   C23
  1973  1975  1974  1977   9   0.00   0.54392   3 ;    C19-   C21-   C20-   C23
  1973  1975  1974  1977   9   180.00   1.21336   2 ;    C19-   C21-   C20-   C23
  1973  1975  1974  1979   9   0.00   0.65084   3 ;    C19-   C21-   C20-   H33
  1973  1975  1974  1989   9   0.00   0.87864   3 ;    C19-   C21-   C20-   O18
  1973  1975  1991  1992   9   0.00   0.00000   0 ;    C19-   C21-   O19-   H41
  1973  1976  1983  1977   9   0.00   0.00000   0 ;    C19-   C22-   O16-   C23
  1973  1976  1983  1977   9   0.00   0.66944   2 ;    C19-   C22-   O16-   C23
  1973  1976  1983  1977   9   0.00   1.00416   3 ;    C19-   C22-   O16-   C23
  1973  1976  1984  1985   9   0.00   0.65084   3 ;    C19-   C22-   C24-   H37
  1973  1976  1984  1986   9   0.00   0.65084   3 ;    C19-   C22-   C24-   H38
  1973  1976  1984  1987   9   0.00   0.87864   3 ;    C19-   C22-   C24-   O17
  1974  1975  1973  1976   9   0.00   0.46024   1 ;    C20-   C21-   C19-   C22
  1974  1975  1973  1976   9   0.00   0.54392   3 ;    C20-   C21-   C19-   C22
  1974  1975  1973  1976   9   180.00   1.21336   2 ;    C20-   C21-   C19-   C22
  1974  1975  1973  1982   9   0.00   0.65084   3 ;    C20-   C21-   C19-   H36
  1974  1975  1991  1992   9   0.00   0.00000   0 ;    C20-   C21-   O19-   H41
  1974  1977  1983  1976   9   0.00   0.00000   0 ;    C20-   C23-   O16-   C22
  1974  1977  1983  1976   9   0.00   0.66944   2 ;    C20-   C23-   O16-   C22
  1974  1977  1983  1976   9   0.00   1.00416   3 ;    C20-   C23-   O16-   C22
  1974  1977  1993  1994   9   0.00   0.00000   0 ;    C20-   C23-   O20-   C25
  1974  1977  1993  1994   9   0.00   0.66944   2 ;    C20-   C23-   O20-   C25
  1974  1977  1993  1994   9   0.00   1.00416   3 ;    C20-   C23-   O20-   C25
  1975  1973  1976  1980   9   0.00   0.65084   3 ;    C21-   C19-   C22-   H34
  1975  1973  1976  1983   9   0.00   0.65084   3 ;    C21-   C19-   C22-   O16
  1975  1973  1976  1984   9   0.00   0.46024   1 ;    C21-   C19-   C22-   C24
  1975  1973  1976  1984   9   0.00   0.54392   3 ;    C21-   C19-   C22-   C24
  1975  1973  1976  1984   9   180.00   1.21336   2 ;    C21-   C19-   C22-   C24
  1975  1974  1977  1981   9   0.00   0.65084   3 ;    C21-   C20-   C23-   H35
  1975  1974  1977  1983   9   0.00   0.65084   3 ;    C21-   C20-   C23-   O16
  1975  1974  1977  1993   9   0.00   0.65084   3 ;    C21-   C20-   C23-   O20
  1975  1974  1989  1990   9   0.00   0.00000   0 ;    C21-   C20-   O18-   H40
  1976  1973  1975  1978   9   0.00   0.65084   3 ;    C22-   C19-   C21-   H32
  1976  1973  1975  1991   9   0.00   0.87864   3 ;    C22-   C19-   C21-   O19
  1976  1983  1977  1981   9   0.00   1.60387   3 ;    C22-   O16-   C23-   H35
  1976  1983  1977  1993   9   0.00   5.18816   2 ;    C22-   O16-   C23-   O20
  1976  1983  1977  1993   9   180.00   0.00000   3 ;    C22-   O16-   C23-   O20
  1976  1983  1977  1993   9   180.00   4.05848   1 ;    C22-   O16-   C23-   O20
  1976  1984  1987  1988   9   0.00   0.00000   0 ;    C22-   C24-   O17-   H39
  1977  1974  1975  1978   9   0.00   0.65084   3 ;    C23-   C20-   C21-   H32
  1977  1974  1975  1991   9   0.00   0.87864   3 ;    C23-   C20-   C21-   O19
  1977  1974  1989  1990   9   0.00   0.00000   0 ;    C23-   C20-   O18-   H40
  1977  1983  1976  1980   9   0.00   1.41001   3 ;    C23-   O16-   C22-   H34
  1977  1983  1976  1984   9   0.00   0.00000   0 ;    C23-   O16-   C22-   C24
  1977  1983  1976  1984   9   0.00   0.66944   2 ;    C23-   O16-   C22-   C24
  1977  1983  1976  1984   9   0.00   1.00416   3 ;    C23-   O16-   C22-   C24
  1977  1993  1994  1996   9   0.00   0.00000   0 ;    C23-   O20-   C25-   C27
  1977  1993  1994  1996   9   0.00   0.66944   2 ;    C23-   O20-   C25-   C27
  1977  1993  1994  1996   9   0.00   1.00416   3 ;    C23-   O20-   C25-   C27
  1977  1993  1994  1997   9   0.00   0.00000   0 ;    C23-   O20-   C25-   C28
  1977  1993  1994  1997   9   0.00   0.66944   2 ;    C23-   O20-   C25-   C28
  1977  1993  1994  1997   9   0.00   1.00416   3 ;    C23-   O20-   C25-   C28
  1977  1993  1994  2000   9   0.00   1.41001   3 ;    C23-   O20-   C25-   H43
  1978  1975  1973  1982   9   0.00   0.65084   3 ;    H32-   C21-   C19-   H36
  1978  1975  1974  1979   9   0.00   0.65084   3 ;    H32-   C21-   C20-   H33
  1978  1975  1974  1989   9   0.00   0.00000   0 ;    H32-   C21-   C20-   O18
  1978  1975  1974  1989   9   0.00   1.04600   1 ;    H32-   C21-   C20-   O18
  1978  1975  1991  1992   9   0.00   0.47279   3 ;    H32-   C21-   O19-   H41
  1979  1974  1975  1991   9   0.00   0.00000   0 ;    H33-   C20-   C21-   O19
  1979  1974  1975  1991   9   0.00   1.04600   1 ;    H33-   C20-   C21-   O19
  1979  1974  1977  1981   9   0.00   0.65084   3 ;    H33-   C20-   C23-   H35
  1979  1974  1977  1983   9   0.00   0.00000   0 ;    H33-   C20-   C23-   O16
  1979  1974  1977  1983   9   0.00   1.04600   1 ;    H33-   C20-   C23-   O16
  1979  1974  1977  1993   9   0.00   0.00000   0 ;    H33-   C20-   C23-   O20
  1979  1974  1977  1993   9   0.00   1.04600   1 ;    H33-   C20-   C23-   O20
  1979  1974  1989  1990   9   0.00   0.47279   3 ;    H33-   C20-   O18-   H40
  1980  1976  1973  1982   9   0.00   0.65084   3 ;    H34-   C22-   C19-   H36
  1980  1976  1984  1985   9   0.00   0.65084   3 ;    H34-   C22-   C24-   H37
  1980  1976  1984  1986   9   0.00   0.65084   3 ;    H34-   C22-   C24-   H38
  1980  1976  1984  1987   9   0.00   0.00000   0 ;    H34-   C22-   C24-   O17
  1980  1976  1984  1987   9   0.00   1.04600   1 ;    H34-   C22-   C24-   O17
  1981  1977  1974  1989   9   0.00   0.65084   3 ;    H35-   C23-   C20-   O18
  1981  1977  1993  1994   9   0.00   1.60387   3 ;    H35-   C23-   O20-   C25
  1982  1973  1975  1991   9   0.00   0.00000   0 ;    H36-   C19-   C21-   O19
  1982  1973  1975  1991   9   0.00   1.04600   1 ;    H36-   C19-   C21-   O19
  1982  1973  1976  1983   9   0.00   0.00000   0 ;    H36-   C19-   C22-   O16
  1982  1973  1976  1983   9   0.00   1.04600   1 ;    H36-   C19-   C22-   O16
  1982  1973  1976  1984   9   0.00   0.65084   3 ;    H36-   C19-   C22-   C24
  1983  1976  1984  1985   9   0.00   0.00000   0 ;    O16-   C22-   C24-   H37
  1983  1976  1984  1985   9   0.00   1.04600   1 ;    O16-   C22-   C24-   H37
  1983  1976  1984  1986   9   0.00   0.00000   0 ;    O16-   C22-   C24-   H38
  1983  1976  1984  1986   9   0.00   1.04600   1 ;    O16-   C22-   C24-   H38
  1983  1976  1984  1987   9   0.00   0.00000   0 ;    O16-   C22-   C24-   O17
  1983  1976  1984  1987   9   0.00   4.22584   3 ;    O16-   C22-   C24-   O17
  1983  1976  1984  1987   9   180.00   0.08368   1 ;    O16-   C22-   C24-   O17
  1983  1977  1974  1989   9   0.00   0.00000   0 ;    O16-   C23-   C20-   O18
  1983  1977  1974  1989   9   0.00   4.22584   3 ;    O16-   C23-   C20-   O18
  1983  1977  1974  1989   9   180.00   0.08368   1 ;    O16-   C23-   C20-   O18
  1983  1977  1993  1994   9   0.00   5.18816   2 ;    O16-   C23-   O20-   C25
  1983  1977  1993  1994   9   180.00   0.00000   3 ;    O16-   C23-   O20-   C25
  1983  1977  1993  1994   9   180.00   4.05848   1 ;    O16-   C23-   O20-   C25
  1985  1984  1987  1988   9   0.00   0.47279   3 ;    H37-   C24-   O17-   H39
  1986  1984  1987  1988   9   0.00   0.47279   3 ;    H38-   C24-   O17-   H39
  1989  1974  1975  1991   9   0.00   3.76560   3 ;    O18-   C20-   C21-   O19
  1989  1974  1975  1991   9   0.00   4.72792   2 ;    O18-   C20-   C21-   O19
  1989  1974  1977  1993   9   0.00   0.00000   0 ;    O18-   C20-   C23-   O20
  1989  1974  1977  1993   9   0.00   4.22584   3 ;    O18-   C20-   C23-   O20
  1989  1974  1977  1993   9   180.00   0.08368   1 ;    O18-   C20-   C23-   O20
  1993  1994  1996  2003   9   0.00   0.00000   0 ;    O20-   C25-   C27-   H46
  1993  1994  1996  2003   9   0.00   1.04600   1 ;    O20-   C25-   C27-   H46
  1993  1994  1996  2008   9   0.00   0.00000   0 ;    O20-   C25-   C27-   O23
  1993  1994  1996  2008   9   180.00   0.00000   2 ;    O20-   C25-   C27-   O23
  1993  1994  1996  2008   9   180.00   0.71128   1 ;    O20-   C25-   C27-   O23
  1993  1994  1996  2009   9   0.00   0.65084   3 ;    O20-   C25-   C27-   C30
  1993  1994  1997  1998   9   0.00   0.65084   3 ;    O20-   C25-   C28-   C29
  1993  1994  1997  2001   9   0.00   0.00000   0 ;    O20-   C25-   C28-   H44
  1993  1994  1997  2001   9   0.00   1.04600   1 ;    O20-   C25-   C28-   H44
  1993  1994  1997  2004   9   0.00   0.00000   0 ;    O20-   C25-   C28-   O21
  1993  1994  1997  2004   9   0.00   4.22584   3 ;    O20-   C25-   C28-   O21
  1993  1994  1997  2004   9   180.00   0.08368   1 ;    O20-   C25-   C28-   O21
  1994  1996  2008  1995   9   0.00   0.00000   0 ;    C25-   C27-   O23-   C26
  1994  1996  2008  1995   9   0.00   0.66944   2 ;    C25-   C27-   O23-   C26
  1994  1996  2008  1995   9   0.00   1.00416   3 ;    C25-   C27-   O23-   C26
  1994  1996  2009  2010   9   0.00   0.65084   3 ;    C25-   C27-   C30-   H49
  1994  1996  2009  2011   9   0.00   0.65084   3 ;    C25-   C27-   C30-   H50
  1994  1996  2009  2012   9   0.00   0.87864   3 ;    C25-   C27-   C30-   O24
  1994  1997  1998  1995   9   0.00   0.46024   1 ;    C25-   C28-   C29-   C26
  1994  1997  1998  1995   9   0.00   0.54392   3 ;    C25-   C28-   C29-   C26
  1994  1997  1998  1995   9   180.00   1.21336   2 ;    C25-   C28-   C29-   C26
  1994  1997  1998  2002   9   0.00   0.65084   3 ;    C25-   C28-   C29-   H45
  1994  1997  1998  2006   9   0.00   0.87864   3 ;    C25-   C28-   C29-   O22
  1994  1997  2004  2005   9   0.00   0.00000   0 ;    C25-   C28-   O21-   H47
  1995  1998  1997  2001   9   0.00   0.65084   3 ;    C26-   C29-   C28-   H44
  1995  1998  1997  2004   9   0.00   0.87864   3 ;    C26-   C29-   C28-   O21
  1995  1998  2006  2007   9   0.00   0.00000   0 ;    C26-   C29-   O22-   H48
  1995  2008  1996  2003   9   0.00   1.41001   3 ;    C26-   O23-   C27-   H46
  1995  2008  1996  2009   9   0.00   0.00000   0 ;    C26-   O23-   C27-   C30
  1995  2008  1996  2009   9   0.00   0.66944   2 ;    C26-   O23-   C27-   C30
  1995  2008  1996  2009   9   0.00   1.00416   3 ;    C26-   O23-   C27-   C30
  1995  2014  2015  2017   9   0.00   0.00000   0 ;    C26-   O25-   C31-   C33
  1995  2014  2015  2017   9   0.00   0.66944   2 ;    C26-   O25-   C31-   C33
  1995  2014  2015  2017   9   0.00   1.00416   3 ;    C26-   O25-   C31-   C33
  1995  2014  2015  2018   9   0.00   0.00000   0 ;    C26-   O25-   C31-   C34
  1995  2014  2015  2018   9   0.00   0.66944   2 ;    C26-   O25-   C31-   C34
  1995  2014  2015  2018   9   0.00   1.00416   3 ;    C26-   O25-   C31-   C34
  1995  2014  2015  2024   9   0.00   1.41001   3 ;    C26-   O25-   C31-   H56
  1996  1994  1997  1998   9   0.00   0.46024   1 ;    C27-   C25-   C28-   C29
  1996  1994  1997  1998   9   0.00   0.54392   3 ;    C27-   C25-   C28-   C29
  1996  1994  1997  1998   9   180.00   1.21336   2 ;    C27-   C25-   C28-   C29
  1996  1994  1997  2001   9   0.00   0.65084   3 ;    C27-   C25-   C28-   H44
  1996  1994  1997  2004   9   0.00   0.87864   3 ;    C27-   C25-   C28-   O21
  1996  2008  1995  1998   9   0.00   0.00000   0 ;    C27-   O23-   C26-   C29
  1996  2008  1995  1998   9   0.00   0.66944   2 ;    C27-   O23-   C26-   C29
  1996  2008  1995  1998   9   0.00   1.00416   3 ;    C27-   O23-   C26-   C29
  1996  2008  1995  1999   9   0.00   1.60387   3 ;    C27-   O23-   C26-   H42
  1996  2008  1995  2014   9   0.00   5.18816   2 ;    C27-   O23-   C26-   O25
  1996  2008  1995  2014   9   180.00   0.00000   3 ;    C27-   O23-   C26-   O25
  1996  2008  1995  2014   9   180.00   4.05848   1 ;    C27-   O23-   C26-   O25
  1996  2009  2012  2013   9   0.00   0.00000   0 ;    C27-   C30-   O24-   H51
  1997  1994  1996  2003   9   0.00   0.65084   3 ;    C28-   C25-   C27-   H46
  1997  1994  1996  2008   9   0.00   0.65084   3 ;    C28-   C25-   C27-   O23
  1997  1994  1996  2009   9   0.00   0.46024   1 ;    C28-   C25-   C27-   C30
  1997  1994  1996  2009   9   0.00   0.54392   3 ;    C28-   C25-   C27-   C30
  1997  1994  1996  2009   9   180.00   1.21336   2 ;    C28-   C25-   C27-   C30
  1997  1998  1995  1999   9   0.00   0.65084   3 ;    C28-   C29-   C26-   H42
  1997  1998  1995  2008   9   0.00   0.65084   3 ;    C28-   C29-   C26-   O23
  1997  1998  1995  2014   9   0.00   0.65084   3 ;    C28-   C29-   C26-   O25
  1997  1998  2006  2007   9   0.00   0.00000   0 ;    C28-   C29-   O22-   H48
  1998  1995  2014  2015   9   0.00   0.00000   0 ;    C29-   C26-   O25-   C31
  1998  1995  2014  2015   9   0.00   0.66944   2 ;    C29-   C26-   O25-   C31
  1998  1995  2014  2015   9   0.00   1.00416   3 ;    C29-   C26-   O25-   C31
  1998  1997  1994  2000   9   0.00   0.65084   3 ;    C29-   C28-   C25-   H43
  1998  1997  2004  2005   9   0.00   0.00000   0 ;    C29-   C28-   O21-   H47
  1999  1995  1998  2002   9   0.00   0.65084   3 ;    H42-   C26-   C29-   H45
  1999  1995  1998  2006   9   0.00   0.65084   3 ;    H42-   C26-   C29-   O22
  1999  1995  2014  2015   9   0.00   1.60387   3 ;    H42-   C26-   O25-   C31
  2000  1994  1996  2003   9   0.00   0.65084   3 ;    H43-   C25-   C27-   H46
  2000  1994  1996  2008   9   0.00   0.00000   0 ;    H43-   C25-   C27-   O23
  2000  1994  1996  2008   9   0.00   1.04600   1 ;    H43-   C25-   C27-   O23
  2000  1994  1996  2009   9   0.00   0.65084   3 ;    H43-   C25-   C27-   C30
  2000  1994  1997  2001   9   0.00   0.65084   3 ;    H43-   C25-   C28-   H44
  2000  1994  1997  2004   9   0.00   0.00000   0 ;    H43-   C25-   C28-   O21
  2000  1994  1997  2004   9   0.00   1.04600   1 ;    H43-   C25-   C28-   O21
  2001  1997  1998  2002   9   0.00   0.65084   3 ;    H44-   C28-   C29-   H45
  2001  1997  1998  2006   9   0.00   0.00000   0 ;    H44-   C28-   C29-   O22
  2001  1997  1998  2006   9   0.00   1.04600   1 ;    H44-   C28-   C29-   O22
  2001  1997  2004  2005   9   0.00   0.47279   3 ;    H44-   C28-   O21-   H47
  2002  1998  1995  2008   9   0.00   0.00000   0 ;    H45-   C29-   C26-   O23
  2002  1998  1995  2008   9   0.00   1.04600   1 ;    H45-   C29-   C26-   O23
  2002  1998  1995  2014   9   0.00   0.00000   0 ;    H45-   C29-   C26-   O25
  2002  1998  1995  2014   9   0.00   1.04600   1 ;    H45-   C29-   C26-   O25
  2002  1998  1997  2004   9   0.00   0.00000   0 ;    H45-   C29-   C28-   O21
  2002  1998  1997  2004   9   0.00   1.04600   1 ;    H45-   C29-   C28-   O21
  2002  1998  2006  2007   9   0.00   0.47279   3 ;    H45-   C29-   O22-   H48
  2003  1996  2009  2010   9   0.00   0.65084   3 ;    H46-   C27-   C30-   H49
  2003  1996  2009  2011   9   0.00   0.65084   3 ;    H46-   C27-   C30-   H50
  2003  1996  2009  2012   9   0.00   0.00000   0 ;    H46-   C27-   C30-   O24
  2003  1996  2009  2012   9   0.00   1.04600   1 ;    H46-   C27-   C30-   O24
  2004  1997  1998  2006   9   0.00   3.76560   3 ;    O21-   C28-   C29-   O22
  2004  1997  1998  2006   9   0.00   4.72792   2 ;    O21-   C28-   C29-   O22
  2006  1998  1995  2008   9   0.00   0.00000   0 ;    O22-   C29-   C26-   O23
  2006  1998  1995  2008   9   0.00   4.22584   3 ;    O22-   C29-   C26-   O23
  2006  1998  1995  2008   9   180.00   0.08368   1 ;    O22-   C29-   C26-   O23
  2006  1998  1995  2014   9   0.00   0.00000   0 ;    O22-   C29-   C26-   O25
  2006  1998  1995  2014   9   0.00   4.22584   3 ;    O22-   C29-   C26-   O25
  2006  1998  1995  2014   9   180.00   0.08368   1 ;    O22-   C29-   C26-   O25
  2008  1995  2014  2015   9   0.00   5.18816   2 ;    O23-   C26-   O25-   C31
  2008  1995  2014  2015   9   180.00   0.00000   3 ;    O23-   C26-   O25-   C31
  2008  1995  2014  2015   9   180.00   4.05848   1 ;    O23-   C26-   O25-   C31
  2008  1996  2009  2010   9   0.00   0.00000   0 ;    O23-   C27-   C30-   H49
  2008  1996  2009  2010   9   0.00   1.04600   1 ;    O23-   C27-   C30-   H49
  2008  1996  2009  2011   9   0.00   0.00000   0 ;    O23-   C27-   C30-   H50
  2008  1996  2009  2011   9   0.00   1.04600   1 ;    O23-   C27-   C30-   H50
  2008  1996  2009  2012   9   0.00   0.00000   0 ;    O23-   C27-   C30-   O24
  2008  1996  2009  2012   9   0.00   4.22584   3 ;    O23-   C27-   C30-   O24
  2008  1996  2009  2012   9   180.00   0.08368   1 ;    O23-   C27-   C30-   O24
  2010  2009  2012  2013   9   0.00   0.47279   3 ;    H49-   C30-   O24-   H51
  2011  2009  2012  2013   9   0.00   0.47279   3 ;    H50-   C30-   O24-   H51
  2014  2015  2017  2016   9   0.00   0.65084   3 ;    O25-   C31-   C33-   C32
  2014  2015  2017  2020   9   0.00   0.00000   0 ;    O25-   C31-   C33-   H52
  2014  2015  2017  2020   9   0.00   1.04600   1 ;    O25-   C31-   C33-   H52
  2014  2015  2017  2033   9   0.00   0.00000   0 ;    O25-   C31-   C33-   O29
  2014  2015  2017  2033   9   0.00   4.22584   3 ;    O25-   C31-   C33-   O29
  2014  2015  2017  2033   9   180.00   0.08368   1 ;    O25-   C31-   C33-   O29
  2014  2015  2018  2022   9   0.00   0.00000   0 ;    O25-   C31-   C34-   H54
  2014  2015  2018  2022   9   0.00   1.04600   1 ;    O25-   C31-   C34-   H54
  2014  2015  2018  2025   9   0.00   0.00000   0 ;    O25-   C31-   C34-   O26
  2014  2015  2018  2025   9   180.00   0.00000   2 ;    O25-   C31-   C34-   O26
  2014  2015  2018  2025   9   180.00   0.71128   1 ;    O25-   C31-   C34-   O26
  2014  2015  2018  2026   9   0.00   0.65084   3 ;    O25-   C31-   C34-   C36
  2015  2017  2016  2019   9   0.00   0.46024   1 ;    C31-   C33-   C32-   C35
  2015  2017  2016  2019   9   0.00   0.54392   3 ;    C31-   C33-   C32-   C35
  2015  2017  2016  2019   9   180.00   1.21336   2 ;    C31-   C33-   C32-   C35
  2015  2017  2016  2021   9   0.00   0.65084   3 ;    C31-   C33-   C32-   H53
  2015  2017  2016  2031   9   0.00   0.87864   3 ;    C31-   C33-   C32-   O28
  2015  2017  2033  2034   9   0.00   0.00000   0 ;    C31-   C33-   O29-   H61
  2015  2018  2025  2019   9   0.00   0.00000   0 ;    C31-   C34-   O26-   C35
  2015  2018  2025  2019   9   0.00   0.66944   2 ;    C31-   C34-   O26-   C35
  2015  2018  2025  2019   9   0.00   1.00416   3 ;    C31-   C34-   O26-   C35
  2015  2018  2026  2027   9   0.00   0.65084   3 ;    C31-   C34-   C36-   H57
  2015  2018  2026  2028   9   0.00   0.65084   3 ;    C31-   C34-   C36-   H58
  2015  2018  2026  2029   9   0.00   0.87864   3 ;    C31-   C34-   C36-   O27
  2016  2017  2015  2018   9   0.00   0.46024   1 ;    C32-   C33-   C31-   C34
  2016  2017  2015  2018   9   0.00   0.54392   3 ;    C32-   C33-   C31-   C34
  2016  2017  2015  2018   9   180.00   1.21336   2 ;    C32-   C33-   C31-   C34
  2016  2017  2015  2024   9   0.00   0.65084   3 ;    C32-   C33-   C31-   H56
  2016  2017  2033  2034   9   0.00   0.00000   0 ;    C32-   C33-   O29-   H61
  2016  2019  2025  2018   9   0.00   0.00000   0 ;    C32-   C35-   O26-   C34
  2016  2019  2025  2018   9   0.00   0.66944   2 ;    C32-   C35-   O26-   C34
  2016  2019  2025  2018   9   0.00   1.00416   3 ;    C32-   C35-   O26-   C34
  2016  2019  2035  2036   9   0.00   0.00000   0 ;    C32-   C35-   O30-   C37
  2016  2019  2035  2036   9   0.00   0.66944   2 ;    C32-   C35-   O30-   C37
  2016  2019  2035  2036   9   0.00   1.00416   3 ;    C32-   C35-   O30-   C37
  2017  2015  2018  2022   9   0.00   0.65084   3 ;    C33-   C31-   C34-   H54
  2017  2015  2018  2025   9   0.00   0.65084   3 ;    C33-   C31-   C34-   O26
  2017  2015  2018  2026   9   0.00   0.46024   1 ;    C33-   C31-   C34-   C36
  2017  2015  2018  2026   9   0.00   0.54392   3 ;    C33-   C31-   C34-   C36
  2017  2015  2018  2026   9   180.00   1.21336   2 ;    C33-   C31-   C34-   C36
  2017  2016  2019  2023   9   0.00   0.65084   3 ;    C33-   C32-   C35-   H55
  2017  2016  2019  2025   9   0.00   0.65084   3 ;    C33-   C32-   C35-   O26
  2017  2016  2019  2035   9   0.00   0.65084   3 ;    C33-   C32-   C35-   O30
  2017  2016  2031  2032   9   0.00   0.00000   0 ;    C33-   C32-   O28-   H60
  2018  2015  2017  2020   9   0.00   0.65084   3 ;    C34-   C31-   C33-   H52
  2018  2015  2017  2033   9   0.00   0.87864   3 ;    C34-   C31-   C33-   O29
  2018  2025  2019  2023   9   0.00   1.60387   3 ;    C34-   O26-   C35-   H55
  2018  2025  2019  2035   9   0.00   5.18816   2 ;    C34-   O26-   C35-   O30
  2018  2025  2019  2035   9   180.00   0.00000   3 ;    C34-   O26-   C35-   O30
  2018  2025  2019  2035   9   180.00   4.05848   1 ;    C34-   O26-   C35-   O30
  2018  2026  2029  2030   9   0.00   0.00000   0 ;    C34-   C36-   O27-   H59
  2019  2016  2017  2020   9   0.00   0.65084   3 ;    C35-   C32-   C33-   H52
  2019  2016  2017  2033   9   0.00   0.87864   3 ;    C35-   C32-   C33-   O29
  2019  2016  2031  2032   9   0.00   0.00000   0 ;    C35-   C32-   O28-   H60
  2019  2025  2018  2022   9   0.00   1.41001   3 ;    C35-   O26-   C34-   H54
  2019  2025  2018  2026   9   0.00   0.00000   0 ;    C35-   O26-   C34-   C36
  2019  2025  2018  2026   9   0.00   0.66944   2 ;    C35-   O26-   C34-   C36
  2019  2025  2018  2026   9   0.00   1.00416   3 ;    C35-   O26-   C34-   C36
  2019  2035  2036  2038   9   0.00   0.00000   0 ;    C35-   O30-   C37-   C39
  2019  2035  2036  2038   9   0.00   0.66944   2 ;    C35-   O30-   C37-   C39
  2019  2035  2036  2038   9   0.00   1.00416   3 ;    C35-   O30-   C37-   C39
  2019  2035  2036  2039   9   0.00   0.00000   0 ;    C35-   O30-   C37-   C40
  2019  2035  2036  2039   9   0.00   0.66944   2 ;    C35-   O30-   C37-   C40
  2019  2035  2036  2039   9   0.00   1.00416   3 ;    C35-   O30-   C37-   C40
  2019  2035  2036  2042   9   0.00   1.41001   3 ;    C35-   O30-   C37-   H63
  2020  2017  2015  2024   9   0.00   0.65084   3 ;    H52-   C33-   C31-   H56
  2020  2017  2016  2021   9   0.00   0.65084   3 ;    H52-   C33-   C32-   H53
  2020  2017  2016  2031   9   0.00   0.00000   0 ;    H52-   C33-   C32-   O28
  2020  2017  2016  2031   9   0.00   1.04600   1 ;    H52-   C33-   C32-   O28
  2020  2017  2033  2034   9   0.00   0.47279   3 ;    H52-   C33-   O29-   H61
  2021  2016  2017  2033   9   0.00   0.00000   0 ;    H53-   C32-   C33-   O29
  2021  2016  2017  2033   9   0.00   1.04600   1 ;    H53-   C32-   C33-   O29
  2021  2016  2019  2023   9   0.00   0.65084   3 ;    H53-   C32-   C35-   H55
  2021  2016  2019  2025   9   0.00   0.00000   0 ;    H53-   C32-   C35-   O26
  2021  2016  2019  2025   9   0.00   1.04600   1 ;    H53-   C32-   C35-   O26
  2021  2016  2019  2035   9   0.00   0.00000   0 ;    H53-   C32-   C35-   O30
  2021  2016  2019  2035   9   0.00   1.04600   1 ;    H53-   C32-   C35-   O30
  2021  2016  2031  2032   9   0.00   0.47279   3 ;    H53-   C32-   O28-   H60
  2022  2018  2015  2024   9   0.00   0.65084   3 ;    H54-   C34-   C31-   H56
  2022  2018  2026  2027   9   0.00   0.65084   3 ;    H54-   C34-   C36-   H57
  2022  2018  2026  2028   9   0.00   0.65084   3 ;    H54-   C34-   C36-   H58
  2022  2018  2026  2029   9   0.00   0.00000   0 ;    H54-   C34-   C36-   O27
  2022  2018  2026  2029   9   0.00   1.04600   1 ;    H54-   C34-   C36-   O27
  2023  2019  2016  2031   9   0.00   0.65084   3 ;    H55-   C35-   C32-   O28
  2023  2019  2035  2036   9   0.00   1.60387   3 ;    H55-   C35-   O30-   C37
  2024  2015  2017  2033   9   0.00   0.00000   0 ;    H56-   C31-   C33-   O29
  2024  2015  2017  2033   9   0.00   1.04600   1 ;    H56-   C31-   C33-   O29
  2024  2015  2018  2025   9   0.00   0.00000   0 ;    H56-   C31-   C34-   O26
  2024  2015  2018  2025   9   0.00   1.04600   1 ;    H56-   C31-   C34-   O26
  2024  2015  2018  2026   9   0.00   0.65084   3 ;    H56-   C31-   C34-   C36
  2025  2018  2026  2027   9   0.00   0.00000   0 ;    O26-   C34-   C36-   H57
  2025  2018  2026  2027   9   0.00   1.04600   1 ;    O26-   C34-   C36-   H57
  2025  2018  2026  2028   9   0.00   0.00000   0 ;    O26-   C34-   C36-   H58
  2025  2018  2026  2028   9   0.00   1.04600   1 ;    O26-   C34-   C36-   H58
  2025  2018  2026  2029   9   0.00   0.00000   0 ;    O26-   C34-   C36-   O27
  2025  2018  2026  2029   9   0.00   4.22584   3 ;    O26-   C34-   C36-   O27
  2025  2018  2026  2029   9   180.00   0.08368   1 ;    O26-   C34-   C36-   O27
  2025  2019  2016  2031   9   0.00   0.00000   0 ;    O26-   C35-   C32-   O28
  2025  2019  2016  2031   9   0.00   4.22584   3 ;    O26-   C35-   C32-   O28
  2025  2019  2016  2031   9   180.00   0.08368   1 ;    O26-   C35-   C32-   O28
  2025  2019  2035  2036   9   0.00   5.18816   2 ;    O26-   C35-   O30-   C37
  2025  2019  2035  2036   9   180.00   0.00000   3 ;    O26-   C35-   O30-   C37
  2025  2019  2035  2036   9   180.00   4.05848   1 ;    O26-   C35-   O30-   C37
  2027  2026  2029  2030   9   0.00   0.47279   3 ;    H57-   C36-   O27-   H59
  2028  2026  2029  2030   9   0.00   0.47279   3 ;    H58-   C36-   O27-   H59
  2031  2016  2017  2033   9   0.00   3.76560   3 ;    O28-   C32-   C33-   O29
  2031  2016  2017  2033   9   0.00   4.72792   2 ;    O28-   C32-   C33-   O29
  2031  2016  2019  2035   9   0.00   0.00000   0 ;    O28-   C32-   C35-   O30
  2031  2016  2019  2035   9   0.00   4.22584   3 ;    O28-   C32-   C35-   O30
  2031  2016  2019  2035   9   180.00   0.08368   1 ;    O28-   C32-   C35-   O30
  2035  2036  2038  2045   9   0.00   0.00000   0 ;    O30-   C37-   C39-   H66
  2035  2036  2038  2045   9   0.00   1.04600   1 ;    O30-   C37-   C39-   H66
  2035  2036  2038  2050   9   0.00   0.00000   0 ;    O30-   C37-   C39-   O33
  2035  2036  2038  2050   9   180.00   0.00000   2 ;    O30-   C37-   C39-   O33
  2035  2036  2038  2050   9   180.00   0.71128   1 ;    O30-   C37-   C39-   O33
  2035  2036  2038  2051   9   0.00   0.65084   3 ;    O30-   C37-   C39-   C42
  2035  2036  2039  2040   9   0.00   0.65084   3 ;    O30-   C37-   C40-   C41
  2035  2036  2039  2043   9   0.00   0.00000   0 ;    O30-   C37-   C40-   H64
  2035  2036  2039  2043   9   0.00   1.04600   1 ;    O30-   C37-   C40-   H64
  2035  2036  2039  2046   9   0.00   0.00000   0 ;    O30-   C37-   C40-   O31
  2035  2036  2039  2046   9   0.00   4.22584   3 ;    O30-   C37-   C40-   O31
  2035  2036  2039  2046   9   180.00   0.08368   1 ;    O30-   C37-   C40-   O31
  2036  2038  2050  2037   9   0.00   0.00000   0 ;    C37-   C39-   O33-   C38
  2036  2038  2050  2037   9   0.00   0.66944   2 ;    C37-   C39-   O33-   C38
  2036  2038  2050  2037   9   0.00   1.00416   3 ;    C37-   C39-   O33-   C38
  2036  2038  2051  2052   9   0.00   0.65084   3 ;    C37-   C39-   C42-   H69
  2036  2038  2051  2053   9   0.00   0.65084   3 ;    C37-   C39-   C42-   H70
  2036  2038  2051  2054   9   0.00   0.87864   3 ;    C37-   C39-   C42-   O34
  2036  2039  2040  2037   9   0.00   0.46024   1 ;    C37-   C40-   C41-   C38
  2036  2039  2040  2037   9   0.00   0.54392   3 ;    C37-   C40-   C41-   C38
  2036  2039  2040  2037   9   180.00   1.21336   2 ;    C37-   C40-   C41-   C38
  2036  2039  2040  2044   9   0.00   0.65084   3 ;    C37-   C40-   C41-   H65
  2036  2039  2040  2048   9   0.00   0.87864   3 ;    C37-   C40-   C41-   O32
  2036  2039  2046  2047   9   0.00   0.00000   0 ;    C37-   C40-   O31-   H67
  2037  2040  2039  2043   9   0.00   0.65084   3 ;    C38-   C41-   C40-   H64
  2037  2040  2039  2046   9   0.00   0.87864   3 ;    C38-   C41-   C40-   O31
  2037  2040  2048  2049   9   0.00   0.00000   0 ;    C38-   C41-   O32-   H68
  2037  2050  2038  2045   9   0.00   1.41001   3 ;    C38-   O33-   C39-   H66
  2037  2050  2038  2051   9   0.00   0.00000   0 ;    C38-   O33-   C39-   C42
  2037  2050  2038  2051   9   0.00   0.66944   2 ;    C38-   O33-   C39-   C42
  2037  2050  2038  2051   9   0.00   1.00416   3 ;    C38-   O33-   C39-   C42
  2037  2056  2057  2059   9   0.00   0.00000   0 ;    C38-   O35-   C43-   C45
  2037  2056  2057  2059   9   0.00   0.66944   2 ;    C38-   O35-   C43-   C45
  2037  2056  2057  2059   9   0.00   1.00416   3 ;    C38-   O35-   C43-   C45
  2037  2056  2057  2060   9   0.00   0.00000   0 ;    C38-   O35-   C43-   C46
  2037  2056  2057  2060   9   0.00   0.66944   2 ;    C38-   O35-   C43-   C46
  2037  2056  2057  2060   9   0.00   1.00416   3 ;    C38-   O35-   C43-   C46
  2037  2056  2057  2066   9   0.00   1.41001   3 ;    C38-   O35-   C43-   H76
  2038  2036  2039  2040   9   0.00   0.46024   1 ;    C39-   C37-   C40-   C41
  2038  2036  2039  2040   9   0.00   0.54392   3 ;    C39-   C37-   C40-   C41
  2038  2036  2039  2040   9   180.00   1.21336   2 ;    C39-   C37-   C40-   C41
  2038  2036  2039  2043   9   0.00   0.65084   3 ;    C39-   C37-   C40-   H64
  2038  2036  2039  2046   9   0.00   0.87864   3 ;    C39-   C37-   C40-   O31
  2038  2050  2037  2040   9   0.00   0.00000   0 ;    C39-   O33-   C38-   C41
  2038  2050  2037  2040   9   0.00   0.66944   2 ;    C39-   O33-   C38-   C41
  2038  2050  2037  2040   9   0.00   1.00416   3 ;    C39-   O33-   C38-   C41
  2038  2050  2037  2041   9   0.00   1.60387   3 ;    C39-   O33-   C38-   H62
  2038  2050  2037  2056   9   0.00   5.18816   2 ;    C39-   O33-   C38-   O35
  2038  2050  2037  2056   9   180.00   0.00000   3 ;    C39-   O33-   C38-   O35
  2038  2050  2037  2056   9   180.00   4.05848   1 ;    C39-   O33-   C38-   O35
  2038  2051  2054  2055   9   0.00   0.00000   0 ;    C39-   C42-   O34-   H71
  2039  2036  2038  2045   9   0.00   0.65084   3 ;    C40-   C37-   C39-   H66
  2039  2036  2038  2050   9   0.00   0.65084   3 ;    C40-   C37-   C39-   O33
  2039  2036  2038  2051   9   0.00   0.46024   1 ;    C40-   C37-   C39-   C42
  2039  2036  2038  2051   9   0.00   0.54392   3 ;    C40-   C37-   C39-   C42
  2039  2036  2038  2051   9   180.00   1.21336   2 ;    C40-   C37-   C39-   C42
  2039  2040  2037  2041   9   0.00   0.65084   3 ;    C40-   C41-   C38-   H62
  2039  2040  2037  2050   9   0.00   0.65084   3 ;    C40-   C41-   C38-   O33
  2039  2040  2037  2056   9   0.00   0.65084   3 ;    C40-   C41-   C38-   O35
  2039  2040  2048  2049   9   0.00   0.00000   0 ;    C40-   C41-   O32-   H68
  2040  2037  2056  2057   9   0.00   0.00000   0 ;    C41-   C38-   O35-   C43
  2040  2037  2056  2057   9   0.00   0.66944   2 ;    C41-   C38-   O35-   C43
  2040  2037  2056  2057   9   0.00   1.00416   3 ;    C41-   C38-   O35-   C43
  2040  2039  2036  2042   9   0.00   0.65084   3 ;    C41-   C40-   C37-   H63
  2040  2039  2046  2047   9   0.00   0.00000   0 ;    C41-   C40-   O31-   H67
  2041  2037  2040  2044   9   0.00   0.65084   3 ;    H62-   C38-   C41-   H65
  2041  2037  2040  2048   9   0.00   0.65084   3 ;    H62-   C38-   C41-   O32
  2041  2037  2056  2057   9   0.00   1.60387   3 ;    H62-   C38-   O35-   C43
  2042  2036  2038  2045   9   0.00   0.65084   3 ;    H63-   C37-   C39-   H66
  2042  2036  2038  2050   9   0.00   0.00000   0 ;    H63-   C37-   C39-   O33
  2042  2036  2038  2050   9   0.00   1.04600   1 ;    H63-   C37-   C39-   O33
  2042  2036  2038  2051   9   0.00   0.65084   3 ;    H63-   C37-   C39-   C42
  2042  2036  2039  2043   9   0.00   0.65084   3 ;    H63-   C37-   C40-   H64
  2042  2036  2039  2046   9   0.00   0.00000   0 ;    H63-   C37-   C40-   O31
  2042  2036  2039  2046   9   0.00   1.04600   1 ;    H63-   C37-   C40-   O31
  2043  2039  2040  2044   9   0.00   0.65084   3 ;    H64-   C40-   C41-   H65
  2043  2039  2040  2048   9   0.00   0.00000   0 ;    H64-   C40-   C41-   O32
  2043  2039  2040  2048   9   0.00   1.04600   1 ;    H64-   C40-   C41-   O32
  2043  2039  2046  2047   9   0.00   0.47279   3 ;    H64-   C40-   O31-   H67
  2044  2040  2037  2050   9   0.00   0.00000   0 ;    H65-   C41-   C38-   O33
  2044  2040  2037  2050   9   0.00   1.04600   1 ;    H65-   C41-   C38-   O33
  2044  2040  2037  2056   9   0.00   0.00000   0 ;    H65-   C41-   C38-   O35
  2044  2040  2037  2056   9   0.00   1.04600   1 ;    H65-   C41-   C38-   O35
  2044  2040  2039  2046   9   0.00   0.00000   0 ;    H65-   C41-   C40-   O31
  2044  2040  2039  2046   9   0.00   1.04600   1 ;    H65-   C41-   C40-   O31
  2044  2040  2048  2049   9   0.00   0.47279   3 ;    H65-   C41-   O32-   H68
  2045  2038  2051  2052   9   0.00   0.65084   3 ;    H66-   C39-   C42-   H69
  2045  2038  2051  2053   9   0.00   0.65084   3 ;    H66-   C39-   C42-   H70
  2045  2038  2051  2054   9   0.00   0.00000   0 ;    H66-   C39-   C42-   O34
  2045  2038  2051  2054   9   0.00   1.04600   1 ;    H66-   C39-   C42-   O34
  2046  2039  2040  2048   9   0.00   3.76560   3 ;    O31-   C40-   C41-   O32
  2046  2039  2040  2048   9   0.00   4.72792   2 ;    O31-   C40-   C41-   O32
  2048  2040  2037  2050   9   0.00   0.00000   0 ;    O32-   C41-   C38-   O33
  2048  2040  2037  2050   9   0.00   4.22584   3 ;    O32-   C41-   C38-   O33
  2048  2040  2037  2050   9   180.00   0.08368   1 ;    O32-   C41-   C38-   O33
  2048  2040  2037  2056   9   0.00   0.00000   0 ;    O32-   C41-   C38-   O35
  2048  2040  2037  2056   9   0.00   4.22584   3 ;    O32-   C41-   C38-   O35
  2048  2040  2037  2056   9   180.00   0.08368   1 ;    O32-   C41-   C38-   O35
  2050  2037  2056  2057   9   0.00   5.18816   2 ;    O33-   C38-   O35-   C43
  2050  2037  2056  2057   9   180.00   0.00000   3 ;    O33-   C38-   O35-   C43
  2050  2037  2056  2057   9   180.00   4.05848   1 ;    O33-   C38-   O35-   C43
  2050  2038  2051  2052   9   0.00   0.00000   0 ;    O33-   C39-   C42-   H69
  2050  2038  2051  2052   9   0.00   1.04600   1 ;    O33-   C39-   C42-   H69
  2050  2038  2051  2053   9   0.00   0.00000   0 ;    O33-   C39-   C42-   H70
  2050  2038  2051  2053   9   0.00   1.04600   1 ;    O33-   C39-   C42-   H70
  2050  2038  2051  2054   9   0.00   0.00000   0 ;    O33-   C39-   C42-   O34
  2050  2038  2051  2054   9   0.00   4.22584   3 ;    O33-   C39-   C42-   O34
  2050  2038  2051  2054   9   180.00   0.08368   1 ;    O33-   C39-   C42-   O34
  2052  2051  2054  2055   9   0.00   0.47279   3 ;    H69-   C42-   O34-   H71
  2053  2051  2054  2055   9   0.00   0.47279   3 ;    H70-   C42-   O34-   H71
  2056  2057  2059  2058   9   0.00   0.65084   3 ;    O35-   C43-   C45-   C44
  2056  2057  2059  2062   9   0.00   0.00000   0 ;    O35-   C43-   C45-   H72
  2056  2057  2059  2062   9   0.00   1.04600   1 ;    O35-   C43-   C45-   H72
  2056  2057  2059  2075   9   0.00   0.00000   0 ;    O35-   C43-   C45-   O39
  2056  2057  2059  2075   9   0.00   4.22584   3 ;    O35-   C43-   C45-   O39
  2056  2057  2059  2075   9   180.00   0.08368   1 ;    O35-   C43-   C45-   O39
  2056  2057  2060  2064   9   0.00   0.00000   0 ;    O35-   C43-   C46-   H74
  2056  2057  2060  2064   9   0.00   1.04600   1 ;    O35-   C43-   C46-   H74
  2056  2057  2060  2067   9   0.00   0.00000   0 ;    O35-   C43-   C46-   O36
  2056  2057  2060  2067   9   180.00   0.00000   2 ;    O35-   C43-   C46-   O36
  2056  2057  2060  2067   9   180.00   0.71128   1 ;    O35-   C43-   C46-   O36
  2056  2057  2060  2068   9   0.00   0.65084   3 ;    O35-   C43-   C46-   C48
  2057  2059  2058  2061   9   0.00   0.46024   1 ;    C43-   C45-   C44-   C47
  2057  2059  2058  2061   9   0.00   0.54392   3 ;    C43-   C45-   C44-   C47
  2057  2059  2058  2061   9   180.00   1.21336   2 ;    C43-   C45-   C44-   C47
  2057  2059  2058  2063   9   0.00   0.65084   3 ;    C43-   C45-   C44-   H73
  2057  2059  2058  2073   9   0.00   0.87864   3 ;    C43-   C45-   C44-   O38
  2057  2059  2075  2076   9   0.00   0.00000   0 ;    C43-   C45-   O39-   H81
  2057  2060  2067  2061   9   0.00   0.00000   0 ;    C43-   C46-   O36-   C47
  2057  2060  2067  2061   9   0.00   0.66944   2 ;    C43-   C46-   O36-   C47
  2057  2060  2067  2061   9   0.00   1.00416   3 ;    C43-   C46-   O36-   C47
  2057  2060  2068  2069   9   0.00   0.65084   3 ;    C43-   C46-   C48-   H77
  2057  2060  2068  2070   9   0.00   0.65084   3 ;    C43-   C46-   C48-   H78
  2057  2060  2068  2071   9   0.00   0.87864   3 ;    C43-   C46-   C48-   O37
  2058  2059  2057  2060   9   0.00   0.46024   1 ;    C44-   C45-   C43-   C46
  2058  2059  2057  2060   9   0.00   0.54392   3 ;    C44-   C45-   C43-   C46
  2058  2059  2057  2060   9   180.00   1.21336   2 ;    C44-   C45-   C43-   C46
  2058  2059  2057  2066   9   0.00   0.65084   3 ;    C44-   C45-   C43-   H76
  2058  2059  2075  2076   9   0.00   0.00000   0 ;    C44-   C45-   O39-   H81
  2058  2061  2067  2060   9   0.00   0.00000   0 ;    C44-   C47-   O36-   C46
  2058  2061  2067  2060   9   0.00   0.66944   2 ;    C44-   C47-   O36-   C46
  2058  2061  2067  2060   9   0.00   1.00416   3 ;    C44-   C47-   O36-   C46
  2058  2061  2077  2078   9   0.00   0.00000   0 ;    C44-   C47-   O40-   C49
  2058  2061  2077  2078   9   0.00   0.66944   2 ;    C44-   C47-   O40-   C49
  2058  2061  2077  2078   9   0.00   1.00416   3 ;    C44-   C47-   O40-   C49
  2059  2057  2060  2064   9   0.00   0.65084   3 ;    C45-   C43-   C46-   H74
  2059  2057  2060  2067   9   0.00   0.65084   3 ;    C45-   C43-   C46-   O36
  2059  2057  2060  2068   9   0.00   0.46024   1 ;    C45-   C43-   C46-   C48
  2059  2057  2060  2068   9   0.00   0.54392   3 ;    C45-   C43-   C46-   C48
  2059  2057  2060  2068   9   180.00   1.21336   2 ;    C45-   C43-   C46-   C48
  2059  2058  2061  2065   9   0.00   0.65084   3 ;    C45-   C44-   C47-   H75
  2059  2058  2061  2067   9   0.00   0.65084   3 ;    C45-   C44-   C47-   O36
  2059  2058  2061  2077   9   0.00   0.65084   3 ;    C45-   C44-   C47-   O40
  2059  2058  2073  2074   9   0.00   0.00000   0 ;    C45-   C44-   O38-   H80
  2060  2057  2059  2062   9   0.00   0.65084   3 ;    C46-   C43-   C45-   H72
  2060  2057  2059  2075   9   0.00   0.87864   3 ;    C46-   C43-   C45-   O39
  2060  2067  2061  2065   9   0.00   1.60387   3 ;    C46-   O36-   C47-   H75
  2060  2067  2061  2077   9   0.00   5.18816   2 ;    C46-   O36-   C47-   O40
  2060  2067  2061  2077   9   180.00   0.00000   3 ;    C46-   O36-   C47-   O40
  2060  2067  2061  2077   9   180.00   4.05848   1 ;    C46-   O36-   C47-   O40
  2060  2068  2071  2072   9   0.00   0.00000   0 ;    C46-   C48-   O37-   H79
  2061  2058  2059  2062   9   0.00   0.65084   3 ;    C47-   C44-   C45-   H72
  2061  2058  2059  2075   9   0.00   0.87864   3 ;    C47-   C44-   C45-   O39
  2061  2058  2073  2074   9   0.00   0.00000   0 ;    C47-   C44-   O38-   H80
  2061  2067  2060  2064   9   0.00   1.41001   3 ;    C47-   O36-   C46-   H74
  2061  2067  2060  2068   9   0.00   0.00000   0 ;    C47-   O36-   C46-   C48
  2061  2067  2060  2068   9   0.00   0.66944   2 ;    C47-   O36-   C46-   C48
  2061  2067  2060  2068   9   0.00   1.00416   3 ;    C47-   O36-   C46-   C48
  2061  2077  2078  2080   9   0.00   0.00000   0 ;    C47-   O40-   C49-   C51
  2061  2077  2078  2080   9   0.00   0.66944   2 ;    C47-   O40-   C49-   C51
  2061  2077  2078  2080   9   0.00   1.00416   3 ;    C47-   O40-   C49-   C51
  2061  2077  2078  2081   9   0.00   0.00000   0 ;    C47-   O40-   C49-   C52
  2061  2077  2078  2081   9   0.00   0.66944   2 ;    C47-   O40-   C49-   C52
  2061  2077  2078  2081   9   0.00   1.00416   3 ;    C47-   O40-   C49-   C52
  2061  2077  2078  2084   9   0.00   1.41001   3 ;    C47-   O40-   C49-   H83
  2062  2059  2057  2066   9   0.00   0.65084   3 ;    H72-   C45-   C43-   H76
  2062  2059  2058  2063   9   0.00   0.65084   3 ;    H72-   C45-   C44-   H73
  2062  2059  2058  2073   9   0.00   0.00000   0 ;    H72-   C45-   C44-   O38
  2062  2059  2058  2073   9   0.00   1.04600   1 ;    H72-   C45-   C44-   O38
  2062  2059  2075  2076   9   0.00   0.47279   3 ;    H72-   C45-   O39-   H81
  2063  2058  2059  2075   9   0.00   0.00000   0 ;    H73-   C44-   C45-   O39
  2063  2058  2059  2075   9   0.00   1.04600   1 ;    H73-   C44-   C45-   O39
  2063  2058  2061  2065   9   0.00   0.65084   3 ;    H73-   C44-   C47-   H75
  2063  2058  2061  2067   9   0.00   0.00000   0 ;    H73-   C44-   C47-   O36
  2063  2058  2061  2067   9   0.00   1.04600   1 ;    H73-   C44-   C47-   O36
  2063  2058  2061  2077   9   0.00   0.00000   0 ;    H73-   C44-   C47-   O40
  2063  2058  2061  2077   9   0.00   1.04600   1 ;    H73-   C44-   C47-   O40
  2063  2058  2073  2074   9   0.00   0.47279   3 ;    H73-   C44-   O38-   H80
  2064  2060  2057  2066   9   0.00   0.65084   3 ;    H74-   C46-   C43-   H76
  2064  2060  2068  2069   9   0.00   0.65084   3 ;    H74-   C46-   C48-   H77
  2064  2060  2068  2070   9   0.00   0.65084   3 ;    H74-   C46-   C48-   H78
  2064  2060  2068  2071   9   0.00   0.00000   0 ;    H74-   C46-   C48-   O37
  2064  2060  2068  2071   9   0.00   1.04600   1 ;    H74-   C46-   C48-   O37
  2065  2061  2058  2073   9   0.00   0.65084   3 ;    H75-   C47-   C44-   O38
  2065  2061  2077  2078   9   0.00   1.60387   3 ;    H75-   C47-   O40-   C49
  2066  2057  2059  2075   9   0.00   0.00000   0 ;    H76-   C43-   C45-   O39
  2066  2057  2059  2075   9   0.00   1.04600   1 ;    H76-   C43-   C45-   O39
  2066  2057  2060  2067   9   0.00   0.00000   0 ;    H76-   C43-   C46-   O36
  2066  2057  2060  2067   9   0.00   1.04600   1 ;    H76-   C43-   C46-   O36
  2066  2057  2060  2068   9   0.00   0.65084   3 ;    H76-   C43-   C46-   C48
  2067  2060  2068  2069   9   0.00   0.00000   0 ;    O36-   C46-   C48-   H77
  2067  2060  2068  2069   9   0.00   1.04600   1 ;    O36-   C46-   C48-   H77
  2067  2060  2068  2070   9   0.00   0.00000   0 ;    O36-   C46-   C48-   H78
  2067  2060  2068  2070   9   0.00   1.04600   1 ;    O36-   C46-   C48-   H78
  2067  2060  2068  2071   9   0.00   0.00000   0 ;    O36-   C46-   C48-   O37
  2067  2060  2068  2071   9   0.00   4.22584   3 ;    O36-   C46-   C48-   O37
  2067  2060  2068  2071   9   180.00   0.08368   1 ;    O36-   C46-   C48-   O37
  2067  2061  2058  2073   9   0.00   0.00000   0 ;    O36-   C47-   C44-   O38
  2067  2061  2058  2073   9   0.00   4.22584   3 ;    O36-   C47-   C44-   O38
  2067  2061  2058  2073   9   180.00   0.08368   1 ;    O36-   C47-   C44-   O38
  2067  2061  2077  2078   9   0.00   5.18816   2 ;    O36-   C47-   O40-   C49
  2067  2061  2077  2078   9   180.00   0.00000   3 ;    O36-   C47-   O40-   C49
  2067  2061  2077  2078   9   180.00   4.05848   1 ;    O36-   C47-   O40-   C49
  2069  2068  2071  2072   9   0.00   0.47279   3 ;    H77-   C48-   O37-   H79
  2070  2068  2071  2072   9   0.00   0.47279   3 ;    H78-   C48-   O37-   H79
  2073  2058  2059  2075   9   0.00   3.76560   3 ;    O38-   C44-   C45-   O39
  2073  2058  2059  2075   9   0.00   4.72792   2 ;    O38-   C44-   C45-   O39
  2073  2058  2061  2077   9   0.00   0.00000   0 ;    O38-   C44-   C47-   O40
  2073  2058  2061  2077   9   0.00   4.22584   3 ;    O38-   C44-   C47-   O40
  2073  2058  2061  2077   9   180.00   0.08368   1 ;    O38-   C44-   C47-   O40
  2077  2078  2080  2087   9   0.00   0.00000   0 ;    O40-   C49-   C51-   H86
  2077  2078  2080  2087   9   0.00   1.04600   1 ;    O40-   C49-   C51-   H86
  2077  2078  2080  2092   9   0.00   0.00000   0 ;    O40-   C49-   C51-   O43
  2077  2078  2080  2092   9   180.00   0.00000   2 ;    O40-   C49-   C51-   O43
  2077  2078  2080  2092   9   180.00   0.71128   1 ;    O40-   C49-   C51-   O43
  2077  2078  2080  2093   9   0.00   0.65084   3 ;    O40-   C49-   C51-   C54
  2077  2078  2081  2082   9   0.00   0.65084   3 ;    O40-   C49-   C52-   C53
  2077  2078  2081  2085   9   0.00   0.00000   0 ;    O40-   C49-   C52-   H84
  2077  2078  2081  2085   9   0.00   1.04600   1 ;    O40-   C49-   C52-   H84
  2077  2078  2081  2088   9   0.00   0.00000   0 ;    O40-   C49-   C52-   O41
  2077  2078  2081  2088   9   0.00   4.22584   3 ;    O40-   C49-   C52-   O41
  2077  2078  2081  2088   9   180.00   0.08368   1 ;    O40-   C49-   C52-   O41
  2078  2080  2092  2079   9   0.00   0.00000   0 ;    C49-   C51-   O43-   C50
  2078  2080  2092  2079   9   0.00   0.66944   2 ;    C49-   C51-   O43-   C50
  2078  2080  2092  2079   9   0.00   1.00416   3 ;    C49-   C51-   O43-   C50
  2078  2080  2093  2094   9   0.00   0.65084   3 ;    C49-   C51-   C54-   H89
  2078  2080  2093  2095   9   0.00   0.65084   3 ;    C49-   C51-   C54-   H90
  2078  2080  2093  2096   9   0.00   0.87864   3 ;    C49-   C51-   C54-   O44
  2078  2081  2082  2079   9   0.00   0.46024   1 ;    C49-   C52-   C53-   C50
  2078  2081  2082  2079   9   0.00   0.54392   3 ;    C49-   C52-   C53-   C50
  2078  2081  2082  2079   9   180.00   1.21336   2 ;    C49-   C52-   C53-   C50
  2078  2081  2082  2086   9   0.00   0.65084   3 ;    C49-   C52-   C53-   H85
  2078  2081  2082  2090   9   0.00   0.87864   3 ;    C49-   C52-   C53-   O42
  2078  2081  2088  2089   9   0.00   0.00000   0 ;    C49-   C52-   O41-   H87
  2079  2082  2081  2085   9   0.00   0.65084   3 ;    C50-   C53-   C52-   H84
  2079  2082  2081  2088   9   0.00   0.87864   3 ;    C50-   C53-   C52-   O41
  2079  2082  2090  2091   9   0.00   0.00000   0 ;    C50-   C53-   O42-   H88
  2079  2092  2080  2087   9   0.00   1.41001   3 ;    C50-   O43-   C51-   H86
  2079  2092  2080  2093   9   0.00   0.00000   0 ;    C50-   O43-   C51-   C54
  2079  2092  2080  2093   9   0.00   0.66944   2 ;    C50-   O43-   C51-   C54
  2079  2092  2080  2093   9   0.00   1.00416   3 ;    C50-   O43-   C51-   C54
  2079  2098  2099  2101   9   0.00   0.00000   0 ;    C50-   O45-   C55-   C57
  2079  2098  2099  2101   9   0.00   0.66944   2 ;    C50-   O45-   C55-   C57
  2079  2098  2099  2101   9   0.00   1.00416   3 ;    C50-   O45-   C55-   C57
  2079  2098  2099  2102   9   0.00   0.00000   0 ;    C50-   O45-   C55-   C58
  2079  2098  2099  2102   9   0.00   0.66944   2 ;    C50-   O45-   C55-   C58
  2079  2098  2099  2102   9   0.00   1.00416   3 ;    C50-   O45-   C55-   C58
  2079  2098  2099  2108   9   0.00   1.41001   3 ;    C50-   O45-   C55-   H96
  2080  2078  2081  2082   9   0.00   0.46024   1 ;    C51-   C49-   C52-   C53
  2080  2078  2081  2082   9   0.00   0.54392   3 ;    C51-   C49-   C52-   C53
  2080  2078  2081  2082   9   180.00   1.21336   2 ;    C51-   C49-   C52-   C53
  2080  2078  2081  2085   9   0.00   0.65084   3 ;    C51-   C49-   C52-   H84
  2080  2078  2081  2088   9   0.00   0.87864   3 ;    C51-   C49-   C52-   O41
  2080  2092  2079  2082   9   0.00   0.00000   0 ;    C51-   O43-   C50-   C53
  2080  2092  2079  2082   9   0.00   0.66944   2 ;    C51-   O43-   C50-   C53
  2080  2092  2079  2082   9   0.00   1.00416   3 ;    C51-   O43-   C50-   C53
  2080  2092  2079  2083   9   0.00   1.60387   3 ;    C51-   O43-   C50-   H82
  2080  2092  2079  2098   9   0.00   5.18816   2 ;    C51-   O43-   C50-   O45
  2080  2092  2079  2098   9   180.00   0.00000   3 ;    C51-   O43-   C50-   O45
  2080  2092  2079  2098   9   180.00   4.05848   1 ;    C51-   O43-   C50-   O45
  2080  2093  2096  2097   9   0.00   0.00000   0 ;    C51-   C54-   O44-   H91
  2081  2078  2080  2087   9   0.00   0.65084   3 ;    C52-   C49-   C51-   H86
  2081  2078  2080  2092   9   0.00   0.65084   3 ;    C52-   C49-   C51-   O43
  2081  2078  2080  2093   9   0.00   0.46024   1 ;    C52-   C49-   C51-   C54
  2081  2078  2080  2093   9   0.00   0.54392   3 ;    C52-   C49-   C51-   C54
  2081  2078  2080  2093   9   180.00   1.21336   2 ;    C52-   C49-   C51-   C54
  2081  2082  2079  2083   9   0.00   0.65084   3 ;    C52-   C53-   C50-   H82
  2081  2082  2079  2092   9   0.00   0.65084   3 ;    C52-   C53-   C50-   O43
  2081  2082  2079  2098   9   0.00   0.65084   3 ;    C52-   C53-   C50-   O45
  2081  2082  2090  2091   9   0.00   0.00000   0 ;    C52-   C53-   O42-   H88
  2082  2079  2098  2099   9   0.00   0.00000   0 ;    C53-   C50-   O45-   C55
  2082  2079  2098  2099   9   0.00   0.66944   2 ;    C53-   C50-   O45-   C55
  2082  2079  2098  2099   9   0.00   1.00416   3 ;    C53-   C50-   O45-   C55
  2082  2081  2078  2084   9   0.00   0.65084   3 ;    C53-   C52-   C49-   H83
  2082  2081  2088  2089   9   0.00   0.00000   0 ;    C53-   C52-   O41-   H87
  2083  2079  2082  2086   9   0.00   0.65084   3 ;    H82-   C50-   C53-   H85
  2083  2079  2082  2090   9   0.00   0.65084   3 ;    H82-   C50-   C53-   O42
  2083  2079  2098  2099   9   0.00   1.60387   3 ;    H82-   C50-   O45-   C55
  2084  2078  2080  2087   9   0.00   0.65084   3 ;    H83-   C49-   C51-   H86
  2084  2078  2080  2092   9   0.00   0.00000   0 ;    H83-   C49-   C51-   O43
  2084  2078  2080  2092   9   0.00   1.04600   1 ;    H83-   C49-   C51-   O43
  2084  2078  2080  2093   9   0.00   0.65084   3 ;    H83-   C49-   C51-   C54
  2084  2078  2081  2085   9   0.00   0.65084   3 ;    H83-   C49-   C52-   H84
  2084  2078  2081  2088   9   0.00   0.00000   0 ;    H83-   C49-   C52-   O41
  2084  2078  2081  2088   9   0.00   1.04600   1 ;    H83-   C49-   C52-   O41
  2085  2081  2082  2086   9   0.00   0.65084   3 ;    H84-   C52-   C53-   H85
  2085  2081  2082  2090   9   0.00   0.00000   0 ;    H84-   C52-   C53-   O42
  2085  2081  2082  2090   9   0.00   1.04600   1 ;    H84-   C52-   C53-   O42
  2085  2081  2088  2089   9   0.00   0.47279   3 ;    H84-   C52-   O41-   H87
  2086  2082  2079  2092   9   0.00   0.00000   0 ;    H85-   C53-   C50-   O43
  2086  2082  2079  2092   9   0.00   1.04600   1 ;    H85-   C53-   C50-   O43
  2086  2082  2079  2098   9   0.00   0.00000   0 ;    H85-   C53-   C50-   O45
  2086  2082  2079  2098   9   0.00   1.04600   1 ;    H85-   C53-   C50-   O45
  2086  2082  2081  2088   9   0.00   0.00000   0 ;    H85-   C53-   C52-   O41
  2086  2082  2081  2088   9   0.00   1.04600   1 ;    H85-   C53-   C52-   O41
  2086  2082  2090  2091   9   0.00   0.47279   3 ;    H85-   C53-   O42-   H88
  2087  2080  2093  2094   9   0.00   0.65084   3 ;    H86-   C51-   C54-   H89
  2087  2080  2093  2095   9   0.00   0.65084   3 ;    H86-   C51-   C54-   H90
  2087  2080  2093  2096   9   0.00   0.00000   0 ;    H86-   C51-   C54-   O44
  2087  2080  2093  2096   9   0.00   1.04600   1 ;    H86-   C51-   C54-   O44
  2088  2081  2082  2090   9   0.00   3.76560   3 ;    O41-   C52-   C53-   O42
  2088  2081  2082  2090   9   0.00   4.72792   2 ;    O41-   C52-   C53-   O42
  2090  2082  2079  2092   9   0.00   0.00000   0 ;    O42-   C53-   C50-   O43
  2090  2082  2079  2092   9   0.00   4.22584   3 ;    O42-   C53-   C50-   O43
  2090  2082  2079  2092   9   180.00   0.08368   1 ;    O42-   C53-   C50-   O43
  2090  2082  2079  2098   9   0.00   0.00000   0 ;    O42-   C53-   C50-   O45
  2090  2082  2079  2098   9   0.00   4.22584   3 ;    O42-   C53-   C50-   O45
  2090  2082  2079  2098   9   180.00   0.08368   1 ;    O42-   C53-   C50-   O45
  2092  2079  2098  2099   9   0.00   5.18816   2 ;    O43-   C50-   O45-   C55
  2092  2079  2098  2099   9   180.00   0.00000   3 ;    O43-   C50-   O45-   C55
  2092  2079  2098  2099   9   180.00   4.05848   1 ;    O43-   C50-   O45-   C55
  2092  2080  2093  2094   9   0.00   0.00000   0 ;    O43-   C51-   C54-   H89
  2092  2080  2093  2094   9   0.00   1.04600   1 ;    O43-   C51-   C54-   H89
  2092  2080  2093  2095   9   0.00   0.00000   0 ;    O43-   C51-   C54-   H90
  2092  2080  2093  2095   9   0.00   1.04600   1 ;    O43-   C51-   C54-   H90
  2092  2080  2093  2096   9   0.00   0.00000   0 ;    O43-   C51-   C54-   O44
  2092  2080  2093  2096   9   0.00   4.22584   3 ;    O43-   C51-   C54-   O44
  2092  2080  2093  2096   9   180.00   0.08368   1 ;    O43-   C51-   C54-   O44
  2094  2093  2096  2097   9   0.00   0.47279   3 ;    H89-   C54-   O44-   H91
  2095  2093  2096  2097   9   0.00   0.47279   3 ;    H90-   C54-   O44-   H91
  2098  2099  2101  2100   9   0.00   0.65084   3 ;    O45-   C55-   C57-   C56
  2098  2099  2101  2104   9   0.00   0.00000   0 ;    O45-   C55-   C57-   H92
  2098  2099  2101  2104   9   0.00   1.04600   1 ;    O45-   C55-   C57-   H92
  2098  2099  2101  2117   9   0.00   0.00000   0 ;    O45-   C55-   C57-   O49
  2098  2099  2101  2117   9   0.00   4.22584   3 ;    O45-   C55-   C57-   O49
  2098  2099  2101  2117   9   180.00   0.08368   1 ;    O45-   C55-   C57-   O49
  2098  2099  2102  2106   9   0.00   0.00000   0 ;    O45-   C55-   C58-   H94
  2098  2099  2102  2106   9   0.00   1.04600   1 ;    O45-   C55-   C58-   H94
  2098  2099  2102  2109   9   0.00   0.00000   0 ;    O45-   C55-   C58-   O46
  2098  2099  2102  2109   9   180.00   0.00000   2 ;    O45-   C55-   C58-   O46
  2098  2099  2102  2109   9   180.00   0.71128   1 ;    O45-   C55-   C58-   O46
  2098  2099  2102  2110   9   0.00   0.65084   3 ;    O45-   C55-   C58-   C60
  2099  2101  2100  2103   9   0.00   0.46024   1 ;    C55-   C57-   C56-   C59
  2099  2101  2100  2103   9   0.00   0.54392   3 ;    C55-   C57-   C56-   C59
  2099  2101  2100  2103   9   180.00   1.21336   2 ;    C55-   C57-   C56-   C59
  2099  2101  2100  2105   9   0.00   0.65084   3 ;    C55-   C57-   C56-   H93
  2099  2101  2100  2115   9   0.00   0.87864   3 ;    C55-   C57-   C56-   O48
  2099  2101  2117  2118   9   0.00   0.00000   0 ;    C55-   C57-   O49-  H101
  2099  2102  2109  2103   9   0.00   0.00000   0 ;    C55-   C58-   O46-   C59
  2099  2102  2109  2103   9   0.00   0.66944   2 ;    C55-   C58-   O46-   C59
  2099  2102  2109  2103   9   0.00   1.00416   3 ;    C55-   C58-   O46-   C59
  2099  2102  2110  2111   9   0.00   0.65084   3 ;    C55-   C58-   C60-   H97
  2099  2102  2110  2112   9   0.00   0.65084   3 ;    C55-   C58-   C60-   H98
  2099  2102  2110  2113   9   0.00   0.87864   3 ;    C55-   C58-   C60-   O47
  2100  2101  2099  2102   9   0.00   0.46024   1 ;    C56-   C57-   C55-   C58
  2100  2101  2099  2102   9   0.00   0.54392   3 ;    C56-   C57-   C55-   C58
  2100  2101  2099  2102   9   180.00   1.21336   2 ;    C56-   C57-   C55-   C58
  2100  2101  2099  2108   9   0.00   0.65084   3 ;    C56-   C57-   C55-   H96
  2100  2101  2117  2118   9   0.00   0.00000   0 ;    C56-   C57-   O49-  H101
  2100  2103  2109  2102   9   0.00   0.00000   0 ;    C56-   C59-   O46-   C58
  2100  2103  2109  2102   9   0.00   0.66944   2 ;    C56-   C59-   O46-   C58
  2100  2103  2109  2102   9   0.00   1.00416   3 ;    C56-   C59-   O46-   C58
  2100  2103  2119  2120   9   0.00   0.00000   0 ;    C56-   C59-   O50-  H102
  2101  2099  2102  2106   9   0.00   0.65084   3 ;    C57-   C55-   C58-   H94
  2101  2099  2102  2109   9   0.00   0.65084   3 ;    C57-   C55-   C58-   O46
  2101  2099  2102  2110   9   0.00   0.46024   1 ;    C57-   C55-   C58-   C60
  2101  2099  2102  2110   9   0.00   0.54392   3 ;    C57-   C55-   C58-   C60
  2101  2099  2102  2110   9   180.00   1.21336   2 ;    C57-   C55-   C58-   C60
  2101  2100  2103  2107   9   0.00   0.65084   3 ;    C57-   C56-   C59-   H95
  2101  2100  2103  2109   9   0.00   0.65084   3 ;    C57-   C56-   C59-   O46
  2101  2100  2103  2119   9   0.00   0.87864   3 ;    C57-   C56-   C59-   O50
  2101  2100  2115  2116   9   0.00   0.00000   0 ;    C57-   C56-   O48-  H100
  2102  2099  2101  2104   9   0.00   0.65084   3 ;    C58-   C55-   C57-   H92
  2102  2099  2101  2117   9   0.00   0.87864   3 ;    C58-   C55-   C57-   O49
  2102  2109  2103  2107   9   0.00   1.60387   3 ;    C58-   O46-   C59-   H95
  2102  2109  2103  2119   9   0.00   1.60387   3 ;    C58-   O46-   C59-   O50
  2102  2110  2113  2114   9   0.00   0.00000   0 ;    C58-   C60-   O47-   H99
  2103  2100  2101  2104   9   0.00   0.65084   3 ;    C59-   C56-   C57-   H92
  2103  2100  2101  2117   9   0.00   0.87864   3 ;    C59-   C56-   C57-   O49
  2103  2100  2115  2116   9   0.00   0.00000   0 ;    C59-   C56-   O48-  H100
  2103  2109  2102  2106   9   0.00   1.41001   3 ;    C59-   O46-   C58-   H94
  2103  2109  2102  2110   9   0.00   0.00000   0 ;    C59-   O46-   C58-   C60
  2103  2109  2102  2110   9   0.00   0.66944   2 ;    C59-   O46-   C58-   C60
  2103  2109  2102  2110   9   0.00   1.00416   3 ;    C59-   O46-   C58-   C60
  2104  2101  2099  2108   9   0.00   0.65084   3 ;    H92-   C57-   C55-   H96
  2104  2101  2100  2105   9   0.00   0.65084   3 ;    H92-   C57-   C56-   H93
  2104  2101  2100  2115   9   0.00   0.00000   0 ;    H92-   C57-   C56-   O48
  2104  2101  2100  2115   9   0.00   1.04600   1 ;    H92-   C57-   C56-   O48
  2104  2101  2117  2118   9   0.00   0.47279   3 ;    H92-   C57-   O49-  H101
  2105  2100  2101  2117   9   0.00   0.00000   0 ;    H93-   C56-   C57-   O49
  2105  2100  2101  2117   9   0.00   1.04600   1 ;    H93-   C56-   C57-   O49
  2105  2100  2103  2107   9   0.00   0.65084   3 ;    H93-   C56-   C59-   H95
  2105  2100  2103  2109   9   0.00   0.00000   0 ;    H93-   C56-   C59-   O46
  2105  2100  2103  2109   9   0.00   1.04600   1 ;    H93-   C56-   C59-   O46
  2105  2100  2103  2119   9   0.00   0.00000   0 ;    H93-   C56-   C59-   O50
  2105  2100  2103  2119   9   0.00   1.04600   1 ;    H93-   C56-   C59-   O50
  2105  2100  2115  2116   9   0.00   0.47279   3 ;    H93-   C56-   O48-  H100
  2106  2102  2099  2108   9   0.00   0.65084   3 ;    H94-   C58-   C55-   H96
  2106  2102  2110  2111   9   0.00   0.65084   3 ;    H94-   C58-   C60-   H97
  2106  2102  2110  2112   9   0.00   0.65084   3 ;    H94-   C58-   C60-   H98
  2106  2102  2110  2113   9   0.00   0.00000   0 ;    H94-   C58-   C60-   O47
  2106  2102  2110  2113   9   0.00   1.04600   1 ;    H94-   C58-   C60-   O47
  2107  2103  2100  2115   9   0.00   0.65084   3 ;    H95-   C59-   C56-   O48
  2107  2103  2119  2120   9   0.00   0.69733   3 ;    H95-   C59-   O50-  H102
  2108  2099  2101  2117   9   0.00   0.00000   0 ;    H96-   C55-   C57-   O49
  2108  2099  2101  2117   9   0.00   1.04600   1 ;    H96-   C55-   C57-   O49
  2108  2099  2102  2109   9   0.00   0.00000   0 ;    H96-   C55-   C58-   O46
  2108  2099  2102  2109   9   0.00   1.04600   1 ;    H96-   C55-   C58-   O46
  2108  2099  2102  2110   9   0.00   0.65084   3 ;    H96-   C55-   C58-   C60
  2109  2102  2110  2111   9   0.00   0.00000   0 ;    O46-   C58-   C60-   H97
  2109  2102  2110  2111   9   0.00   1.04600   1 ;    O46-   C58-   C60-   H97
  2109  2102  2110  2112   9   0.00   0.00000   0 ;    O46-   C58-   C60-   H98
  2109  2102  2110  2112   9   0.00   1.04600   1 ;    O46-   C58-   C60-   H98
  2109  2102  2110  2113   9   0.00   0.00000   0 ;    O46-   C58-   C60-   O47
  2109  2102  2110  2113   9   0.00   4.22584   3 ;    O46-   C58-   C60-   O47
  2109  2102  2110  2113   9   180.00   0.08368   1 ;    O46-   C58-   C60-   O47
  2109  2103  2100  2115   9   0.00   0.00000   0 ;    O46-   C59-   C56-   O48
  2109  2103  2100  2115   9   0.00   4.22584   3 ;    O46-   C59-   C56-   O48
  2109  2103  2100  2115   9   180.00   0.08368   1 ;    O46-   C59-   C56-   O48
  2109  2103  2119  2120   9   0.00   0.69733   3 ;    O46-   C59-   O50-  H102
  2111  2110  2113  2114   9   0.00   0.47279   3 ;    H97-   C60-   O47-   H99
  2112  2110  2113  2114   9   0.00   0.47279   3 ;    H98-   C60-   O47-   H99
  2115  2100  2101  2117   9   0.00   3.76560   3 ;    O48-   C56-   C57-   O49
  2115  2100  2101  2117   9   0.00   4.72792   2 ;    O48-   C56-   C57-   O49
  2115  2100  2103  2119   9   0.00   3.76560   3 ;    O48-   C56-   C59-   O50
  2115  2100  2103  2119   9   0.00   4.72792   2 ;    O48-   C56-   C59-   O50

