CLS single chain in water/ethanol mixed solvent
 7412
    1CLSA    H1    1   1.453   0.381   0.524  1.4575  0.5771 -0.8922
    1CLSA    C1    2   1.455   0.293   0.458  0.7251  0.2948 -0.5451
    1CLSA    C2    3   1.310   0.054   0.416  0.1087 -1.1122  0.6233
    1CLSA    C3    4   1.325   0.293   0.383  1.0307  0.1411  0.2502
    1CLSA    C4    5   1.476   0.174   0.554 -0.0912 -0.4194  0.2401
    1CLSA    C5    6   1.456   0.043   0.478 -0.1808 -0.1349 -0.4617
    1CLSA    H2    7   1.229   0.065   0.490 -1.2606  1.1571 -1.0509
    1CLSA    H3    8   1.540   0.309   0.391  0.8876  1.1350 -0.1463
    1CLSA    H4    9   1.398   0.182   0.631  0.3427  2.1850  0.5016
    1CLSA    H5   10   1.528   0.036   0.395  0.0874 -0.4050 -0.2104
    1CLSA    H6   11   1.242   0.318   0.449  0.7884  0.2019 -0.0744
    1CLSA    O1   12   1.610   0.180   0.598  0.1340 -0.4848  0.2358
    1CLSA    H7   13   1.607   0.202   0.693  1.3888 -0.8492  0.3875
    1CLSA    O2   14   1.471  -0.063   0.578 -0.3252  0.3409 -0.3843
    1CLSA    H8   15   1.473  -0.157   0.553  1.3107  0.0807  0.5629
    1CLSA    O3   16   1.309   0.167   0.317 -0.0559  0.0995 -0.7598
    1CLSA    C6   17   1.327   0.404   0.271  0.5878  0.1157 -1.1141
    1CLSA    H9   18   1.223   0.404   0.235 -0.2742  1.3374  1.1783
    1CLSA   H10   19   1.342   0.502   0.318  0.8126 -1.8920  3.5135
    1CLSA    O4   20   1.415   0.378   0.162 -0.6559 -0.2312 -0.0264
    1CLSA   H11   21   1.372   0.340   0.083  0.6322  0.1502 -0.9571
    1CLSA    O5   22   1.277  -0.060   0.335 -0.0259 -0.0634  0.0041
    2CLSB    C7   23   1.142  -0.059   0.284 -0.1203  0.0380  0.2456
    2CLSB    C8   24   1.008  -0.064   0.071  0.1581  0.3321  0.2089
    2CLSB    C9   25   1.149  -0.034   0.125 -0.0116 -0.9271 -0.6058
    2CLSB   C10   26   1.075  -0.191   0.332 -0.6141  0.1974  0.3460
    2CLSB   C11   27   0.963  -0.200   0.121  0.0622 -0.4318 -0.6534
    2CLSB   H12   28   1.167   0.074   0.113  0.2646 -0.7160  1.3767
    2CLSB   H13   29   0.940   0.013   0.108 -1.9494 -1.5491  0.4435
    2CLSB   H14   30   1.136  -0.274   0.296 -0.1212 -1.3789  4.3709
    2CLSB   H15   31   1.040  -0.270   0.085  2.2759  0.1923  2.5129
    2CLSB   H16   32   1.088   0.017   0.341  0.2774 -1.2525  2.4779
    2CLSB    O6   33   0.948  -0.196   0.267  0.4925  0.1955  0.6756
    2CLSB   C12   34   1.064  -0.192   0.483 -0.0091  0.0755  0.3107
    2CLSB   H17   35   1.165  -0.183   0.524  0.7158 -0.8891 -1.2134
    2CLSB   H18   36   1.013  -0.107   0.530 -0.5814 -0.9838  1.6878
    2CLSB    O7   37   0.999  -0.315   0.524 -0.2768  0.0125 -0.4721
    2CLSB   H19   38   1.037  -0.395   0.485 -0.5573  1.0169 -2.9615
    2CLSB    O8   39   1.022  -0.064  -0.064 -0.1076  0.0595 -0.0704
    2CLSB   H20   40   1.117  -0.045  -0.065  0.0738 -0.7044  1.1201
    2CLSB    O9   41   1.252  -0.111   0.042  0.3874  0.2793  0.3834
    2CLSB   H21   42   1.337  -0.103   0.089  0.7074  0.6525 -0.2528
    2CLSB   O10   43   0.831  -0.240   0.063 -0.4223  0.9869  0.5361
    3CLSA   C13   44   0.708  -0.187   0.122  0.2448 -0.1073  0.1408
    3CLSA   C14   45   0.405  -0.187   0.143 -0.1387  0.3805  0.8313
    3CLSA   C15   46   0.625  -0.303   0.176 -0.5108 -0.6378 -0.4276
    3CLSA   C16   47   0.627  -0.100   0.022  0.9428  0.6748 -0.0595
    3CLSA   C17   48   0.479  -0.068   0.080 -0.2534  0.0106  0.0535
    3CLSA   H22   49   0.367  -0.259   0.070  0.6997  0.0426  0.7126
    3CLSA   H23   50   0.743  -0.124   0.205 -0.5860 -0.4101  0.7370
    3CLSA   H24   51   0.607  -0.153  -0.072 -0.5661 -0.6282  0.9452
    3CLSA   H25   52   0.505  -0.007   0.167  1.3110  0.8499 -0.9414
    3CLSA   H26   53   0.597  -0.373   0.096  0.7459 -1.8701  0.1690
    3CLSA   O11   54   0.689   0.029  -0.005 -0.5767  0.2566  0.1095
    3CLSA   H27   55   0.636   0.097   0.040 -0.6109  1.2255 -1.3213
    3CLSA   O12   56   0.404   0.020  -0.008 -0.0330 -0.0324 -0.4333
    3CLSA   H28   57   0.332   0.056   0.046  1.0841  2.0404 -0.2079
    3CLSA   O13   58   0.500  -0.264   0.233  0.2194 -0.2590  0.2775
    3CLSA   C18   59   0.693  -0.394   0.281  0.2315  0.0523 -0.3119
    3CLSA   H29   60   0.783  -0.434   0.233  1.3154  0.6029  1.1749
    3CLSA   H30   61   0.733  -0.333   0.362  1.7764 -0.3119 -0.7522
    3CLSA   O14   62   0.599  -0.492   0.328 -0.2177 -0.2324 -0.3006
    3CLSA   H31   63   0.525  -0.434   0.352 -1.1073 -0.7088 -1.7551
    3CLSA   O15   64   0.310  -0.123   0.223 -0.1657 -0.5323  0.2356
    4CLSB   C19   65   0.207  -0.210   0.268 -0.0543 -0.2128  0.5870
    4CLSB   C20   66   0.111  -0.305   0.483 -0.2045 -1.0175  0.3063
    4CLSB   C21   67   0.230  -0.234   0.422 -0.5771  0.5832 -0.1120
    4CLSB   C22   68   0.069  -0.131   0.250  0.5355 -1.0301 -0.2254
    4CLSB   C23   69  -0.018  -0.225   0.456  0.2044 -0.2384  0.6052
    4CLSB   H32   70   0.316  -0.301   0.435  0.0272  1.4323  0.3171
    4CLSB   H33   71   0.093  -0.407   0.447  1.6320 -1.0749 -0.5313
    4CLSB   H34   72   0.081  -0.029   0.288  1.4673 -0.7359 -1.2679
    4CLSB   H35   73  -0.010  -0.131   0.513 -0.2083 -0.4008  0.9347
    4CLSB   H36   74   0.207  -0.313   0.229 -0.2484 -1.2044  2.9945
    4CLSB   O16   75  -0.036  -0.209   0.316 -0.3669 -0.2532 -0.1730
    4CLSB   C24   76   0.016  -0.133   0.101 -0.1511 -0.2312  0.0470
    4CLSB   H37   77  -0.091  -0.112   0.096 -0.0161  0.2336 -1.3993
    4CLSB   H38   78   0.066  -0.054   0.043 -0.3341 -0.5161 -0.5124
    4CLSB   O17   79   0.038  -0.260   0.042 -0.1272  0.7155 -0.2848
    4CLSB   H39   80  -0.027  -0.323   0.077  1.2227 -1.7343 -1.9378
    4CLSB   O18   81   0.138  -0.318   0.625 -0.2841  0.0990 -0.2793
    4CLSB   H40   82   0.188  -0.236   0.638  0.6871 -0.4415 -0.4774
    4CLSB   O19   83   0.268  -0.114   0.493  0.0544  0.0073 -0.2761
    4CLSB   H41   84   0.298  -0.044   0.432 -1.9258  1.7176  0.5885
    4CLSB   O20   85  -0.131  -0.311   0.511 -0.3692 -0.5090 -0.3187
    5CLSA   C25   86  -0.256  -0.238   0.527 -0.6464  0.4829 -0.5392
    5CLSA   C26   87  -0.547  -0.266   0.610 -0.4396 -0.0687 -0.0914
    5CLSA   C27   88  -0.307  -0.256   0.666  0.0603 -0.7430 -0.1589
    5CLSA   C28   89  -0.361  -0.298   0.430 -0.6827 -0.2242  0.0360
    5CLSA   C29   90  -0.506  -0.240   0.463 -1.2062 -0.0408  0.0381
    5CLSA   H42   91  -0.553  -0.372   0.636 -1.2870  0.2959  1.3243
    5CLSA   H43   92  -0.243  -0.131   0.509  1.0812  0.0223 -2.2924
    5CLSA   H44   93  -0.355  -0.406   0.445  0.5285 -0.5664 -2.3603
    5CLSA   H45   94  -0.503  -0.131   0.457 -0.7063  0.1634  2.6326
    5CLSA   H46   95  -0.290  -0.359   0.701  3.2077 -0.6596 -1.0674
    5CLSA   O21   96  -0.333  -0.271   0.290  0.1511 -0.2430 -0.1621
    5CLSA   H47   97  -0.416  -0.288   0.243  0.7887 -0.9864 -1.0611
    5CLSA   O22   98  -0.606  -0.288   0.366  0.8473 -0.4603 -0.5504
    5CLSA   H48   99  -0.670  -0.218   0.345 -0.4361 -1.8414 -1.4381
    5CLSA   O23  100  -0.444  -0.203   0.685  0.4930  0.1236 -0.3441
    5CLSA   C30  101  -0.213  -0.179   0.761 -0.0868 -0.3943  0.4277
    5CLSA   H49  102  -0.236  -0.213   0.863  0.9064  1.2032  1.2218
    5CLSA   H50  103  -0.107  -0.203   0.746  0.2658  1.2174  0.1797
    5CLSA   O24  104  -0.231  -0.039   0.753 -0.0737 -0.0111 -0.7927
    5CLSA   H51  105  -0.316  -0.020   0.798  1.2647  0.5904  1.6620
    5CLSA   O25  106  -0.675  -0.209   0.633  0.0262  0.4290 -0.1728
    6CLSB   C31  107  -0.754  -0.262   0.751 -0.4157 -0.4568 -0.2924
    6CLSB   C32  108  -0.801  -0.220   0.999  0.2962 -0.0881  1.4682
    6CLSB   C33  109  -0.709  -0.175   0.877  0.3488  0.3509  0.1075
    6CLSB   C34  110  -0.905  -0.264   0.715  0.3869 -0.4670 -0.0841
    6CLSB   C35  111  -0.947  -0.214   0.962  0.4267  0.3575  0.4436
    6CLSB   H52  112  -0.611  -0.213   0.907 -0.4258 -0.9757  1.0852
    6CLSB   H53  113  -0.788  -0.325   1.030 -3.7530 -1.8341 -1.8179
    6CLSB   H54  114  -0.946  -0.170   0.676  0.8200 -1.1312 -2.2464
    6CLSB   H55  115  -0.973  -0.108   0.952 -1.9759 -0.1900  0.1898
    6CLSB   H56  116  -0.733  -0.364   0.782  1.1184  0.0031  0.2810
    6CLSB   O26  117  -0.978  -0.300   0.840 -0.1306  0.2663  0.2684
    6CLSB   C36  118  -0.942  -0.377   0.615 -0.3537  0.7020  0.1322
    6CLSB   H57  119  -0.869  -0.376   0.534  1.2116 -0.8652  1.4568
    6CLSB   H58  120  -0.934  -0.472   0.668 -0.8880 -0.0387 -1.0839
    6CLSB   O27  121  -1.074  -0.363   0.562 -0.1241  0.5545  0.2882
    6CLSB   H59  122  -1.098  -0.274   0.532  0.0821  0.1316 -1.2310
    6CLSB   O28  123  -0.771  -0.123   1.098  0.3057 -0.0914 -0.1885
    6CLSB   H60  124  -0.756  -0.047   1.040 -0.6221  0.2446 -0.0009
    6CLSB   O29  125  -0.699  -0.034   0.841 -0.0203 -0.5592 -0.3555
    6CLSB   H61  126  -0.740  -0.030   0.753 -0.3039  0.8194 -0.1933
    6CLSB   O30  127  -1.026  -0.258   1.072  0.4366 -0.0911 -0.0369
    7CLSA   C37  128  -1.168  -0.220   1.070 -0.0224 -0.0513  0.0281
    7CLSA   C38  129  -1.408  -0.303   1.209  0.2765 -0.0829  0.6035
    7CLSA   C39  130  -1.201  -0.186   1.218  0.0023 -0.8868 -0.9226
    7CLSA   C40  131  -1.245  -0.341   1.018 -0.0789 -0.5029  0.6578
    7CLSA   C41  132  -1.390  -0.331   1.056  0.3051 -0.0261  0.9424
    7CLSA   H62  133  -1.372  -0.390   1.266  1.6105 -1.0051 -1.4967
    7CLSA   H63  134  -1.174  -0.130   1.007 -0.6652 -0.8407 -1.0706
    7CLSA   H64  135  -1.210  -0.429   1.073  0.9125 -0.5590 -0.0278
    7CLSA   H65  136  -1.443  -0.254   0.999  1.1804  0.4944  0.8185
    7CLSA   H66  137  -1.161  -0.266   1.281  0.7264 -2.2061 -2.9286
    7CLSA   O31  138  -1.231  -0.371   0.871 -0.2023  0.2106 -0.3762
    7CLSA   H67  139  -1.135  -0.379   0.859  0.0377 -0.7846  1.7813
    7CLSA   O32  140  -1.462  -0.453   1.010 -0.6443  0.2427 -0.1149
    7CLSA   H68  141  -1.409  -0.496   0.942 -0.3366 -0.3134  0.4673
    7CLSA   O33  142  -1.338  -0.184   1.242  0.1412 -0.2930 -0.6711
    7CLSA   C42  143  -1.124  -0.054   1.269 -0.5064 -0.0655 -0.1939
    7CLSA   H69  144  -1.131  -0.050   1.378 -0.6571 -2.4359 -0.0736
    7CLSA   H70  145  -1.021  -0.059   1.230 -0.7164 -0.1571 -0.7516
    7CLSA   O34  146  -1.186   0.061   1.208  0.1292  0.1822  0.1615
    7CLSA   H71  147  -1.264   0.082   1.262 -1.3645  1.9606 -2.4724
    7CLSA   O35  148  -1.547  -0.275   1.225  0.3089 -0.8408 -0.7854
    8CLSB   C43  149  -1.599  -0.275   1.360  0.1292  0.4217 -0.0685
    8CLSB   C44  150  -1.675  -0.141   1.559  0.6655  0.3452 -0.2578
    8CLSB   C45  151  -1.601  -0.135   1.423 -0.1851 -0.2679  0.4157
    8CLSB   C46  152  -1.740  -0.343   1.353  0.3603 -1.5951 -0.7973
    8CLSB   C47  153  -1.808  -0.209   1.546  0.2217 -0.6203 -0.2482
    8CLSB   H72  154  -1.498  -0.110   1.452 -0.5152 -0.5149  1.9328
    8CLSB   H73  155  -1.608  -0.193   1.628  0.6031  0.4690 -0.1027
    8CLSB   H74  156  -1.802  -0.270   1.299  0.4318  0.6309  1.9121
    8CLSB   H75  157  -1.864  -0.143   1.479  1.3866 -0.0057 -0.6535
    8CLSB   H76  158  -1.539  -0.337   1.428 -1.7952 -1.3752  0.0766
    8CLSB   O36  159  -1.798  -0.341   1.497 -0.1130  0.5859  0.0421
    8CLSB   C48  160  -1.744  -0.484   1.298  0.6790  0.1989 -0.2037
    8CLSB   H77  161  -1.847  -0.516   1.279  0.5305  0.1221  0.6895
    8CLSB   H78  162  -1.693  -0.482   1.201 -2.7114 -0.4951 -2.1589
    8CLSB   O37  163  -1.698  -0.573   1.393 -0.5312 -0.2470 -0.2256
    8CLSB   H79  164  -1.720  -0.526   1.475  0.1337  0.5580 -0.4899
    8CLSB   O38  165  -1.691  -0.003   1.594 -0.4265 -0.4221 -0.1362
    8CLSB   H80  166  -1.643   0.038   1.520  1.2386 -3.3984 -0.8290
    8CLSB   O39  167  -1.663  -0.032   1.343 -1.3013  0.2412  0.9464
    8CLSB   H81  168  -1.676  -0.062   1.251 -0.0430  1.3462  0.3854
    8CLSB   O40  169  -1.860  -0.217   1.678  0.6325 -0.0030 -0.3624
    9CLSA   C49  170  -2.011  -0.228   1.681 -0.7192  0.0606  0.4230
    9CLSA   C50  171  -2.242  -0.210   1.860 -0.2346 -0.4758 -0.4849
    9CLSA   C51  172  -2.071  -0.094   1.718 -0.4089  0.7374 -0.4197
    9CLSA   C52  173  -2.041  -0.343   1.777  0.7918  0.3904 -0.5713
    9CLSA   C53  174  -2.188  -0.343   1.792 -0.1972 -0.0241 -0.4473
    9CLSA   H82  175  -2.196  -0.195   1.958 -0.6306 -0.5972 -0.2768
    9CLSA   H83  176  -2.047  -0.259   1.582 -2.0759  1.3309  0.4948
    9CLSA   H84  177  -1.992  -0.325   1.874  1.9060 -0.0598 -1.0385
    9CLSA   H85  178  -2.236  -0.353   1.694 -0.3782 -0.7334 -0.2960
    9CLSA   H86  179  -2.007  -0.054   1.797  1.4734  0.5923 -1.7956
    9CLSA   O41  180  -1.998  -0.474   1.735  0.2972  0.0549  0.1386
    9CLSA   H87  181  -2.072  -0.537   1.747 -0.5766  0.6092 -1.9262
    9CLSA   O42  182  -2.223  -0.454   1.885 -0.1246  0.4500 -0.1316
    9CLSA   H88  183  -2.254  -0.524   1.826  0.0070 -1.2500  1.6947
    9CLSA   O43  184  -2.211  -0.106   1.759 -0.2411 -0.6113  0.0467
    9CLSA   C54  185  -2.074   0.000   1.599 -0.0664 -0.0560 -0.1745
    9CLSA   H89  186  -2.131   0.085   1.638 -1.7229 -1.4650  0.6175
    9CLSA   H90  187  -1.970   0.034   1.590 -0.0719 -0.4101 -1.8987
    9CLSA   O44  188  -2.130  -0.057   1.489 -0.0466  0.1446  0.6830
    9CLSA   H91  189  -2.221  -0.023   1.485 -0.2954  0.1296  3.6845
    9CLSA   O45  190  -2.384  -0.210   1.873 -0.1346 -0.0881 -0.0746
   10CLSB   C55  191  -2.428  -0.117   1.972 -0.4661  0.8056 -0.4084
   10CLSB   C56  192  -2.625   0.057   1.999 -0.3252  1.1424 -0.1345
   10CLSB   C57  193  -2.532  -0.021   1.902 -0.5260 -0.4982  0.5801
   10CLSB   C58  194  -2.479  -0.197   2.096 -0.0441 -0.3306  0.2941
   10CLSB   C59  195  -2.667  -0.044   2.107  0.4156  0.0270 -0.3032
   10CLSB   H92  196  -2.473   0.055   1.850 -0.1512  0.0928  1.8143
   10CLSB   H93  197  -2.571   0.137   2.050  3.3194 -0.8718 -0.4788
   10CLSB   H94  198  -2.541  -0.281   2.063  0.6970 -1.3150  1.3319
   10CLSB   H95  199  -2.719  -0.131   2.065  0.3852 -1.7001  2.9858
   10CLSB   H96  200  -2.353  -0.046   2.008 -1.2511  0.4112  2.2524
   10CLSB   O46  201  -2.550  -0.100   2.180 -0.7367  0.4663 -0.1025
   10CLSB   C60  202  -2.368  -0.271   2.176 -0.8015  0.0120 -0.1760
   10CLSB   H97  203  -2.406  -0.317   2.268  1.8402 -0.8186  0.5872
   10CLSB   H98  204  -2.328  -0.348   2.109 -1.6524 -0.6317  0.0304
   10CLSB   O47  205  -2.259  -0.176   2.210 -0.1645  0.1806  0.4244
   10CLSB   H99  206  -2.289  -0.125   2.287 -0.0330 -0.8589  1.1801
   10CLSB   O48  207  -2.739   0.108   1.926  0.4354 -0.7336 -0.1522
   10CLSB  H100  208  -2.787   0.034   1.886 -2.9542  0.7512  0.7711
   10CLSB   O49  209  -2.611  -0.106   1.815 -0.3634  0.5874 -0.9904
   10CLSB  H101  210  -2.542  -0.157   1.770  1.5308  3.2263 -1.3611
   10CLSB   O50  211  -2.761   0.003   2.212 -0.4405 -0.0833 -0.4744
   10CLSB  H102  212  -2.843  -0.044   2.190  1.2500 -3.1833 -0.7715
   11SOL     OW  213   3.226   2.732   0.538 -0.6060  0.2710 -0.2751
   11SOL    HW1  214   3.232   2.678   0.454  0.9736 -0.8213  0.5020
   11SOL    HW2  215   3.308   2.788   0.546 -2.1779  2.8746 -1.0430
   12SOL     OW  216   1.980   1.684   2.691 -0.1100 -0.4441  0.2604
   12SOL    HW1  217   1.902   1.726   2.738  0.1296 -0.3429  0.5730
   12SOL    HW2  218   1.991   1.590   2.724 -0.1166 -0.4673  0.1961
   13SOL     OW  219   1.542   2.028   0.232 -0.1000  0.3793 -0.1076
   13SOL    HW1  220   1.568   2.106   0.288  0.0981 -0.6370  1.2802
   13SOL    HW2  221   1.618   1.962   0.229 -1.0775 -0.8488  0.7872
   14SOL     OW  222   0.665   3.522   2.700 -0.2176 -0.2650 -0.4360
   14SOL    HW1  223   0.580   3.546   2.745  0.8170  1.3330  0.7430
   14SOL    HW2  224   0.735   3.502   2.769  0.7894 -0.0123 -1.3557
   15SOL     OW  225   1.991   2.497   0.873 -0.1142  0.1296 -1.0183
   15SOL    HW1  226   2.059   2.503   0.800  0.9402  0.8775 -0.0239
   15SOL    HW2  227   2.039   2.496   0.961 -1.1467 -3.9367 -0.3482
   16SOL     OW  228   3.201   3.944   1.908  0.2869 -0.3743 -0.3700
   16SOL    HW1  229   3.163   3.862   1.949  1.5282 -0.9255 -0.2553
   16SOL    HW2  230   3.201   4.018   1.975  0.7381 -0.7873  0.0992
   17SOL     OW  231   2.900   3.328   0.435 -0.0792  0.0982 -0.8120
   17SOL    HW1  232   2.855   3.360   0.351 -0.3419 -1.2670 -1.2256
   17SOL    HW2  233   2.976   3.268   0.411 -0.4542 -0.6940 -0.0876
   18SOL     OW  234   2.554   2.812   0.499 -0.2109 -0.4255 -1.0045
   18SOL    HW1  235   2.467   2.794   0.454 -1.0091  1.0752 -0.1458
   18SOL    HW2  236   2.600   2.887   0.451 -1.2016  1.3917  0.7356
   19SOL     OW  237   1.594   3.266   3.405 -0.3167 -0.3495 -0.5438
   19SOL    HW1  238   1.609   3.219   3.493 -0.4394 -0.8742 -0.8011
   19SOL    HW2  239   1.509   3.317   3.409  1.0751  2.0890  0.6933
   20SOL     OW  240   3.235   1.094   0.209 -0.0434  0.2014 -0.1945
   20SOL    HW1  241   3.282   1.170   0.255 -0.2424  1.1664 -1.5465
   20SOL    HW2  242   3.279   1.008   0.236  0.2484  0.7783  1.2846
   21SOL     OW  243   1.544   2.692   1.001 -0.8611 -0.2104  0.6659
   21SOL    HW1  244   1.468   2.706   0.938 -0.4387 -1.4569 -0.1511
   21SOL    HW2  245   1.628   2.680   0.949 -0.1685  0.6771  1.5463
   22SOL     OW  246   2.828   3.575   1.442 -1.1940  0.0058 -0.3744
   22SOL    HW1  247   2.745   3.609   1.398 -0.8881  2.1058  0.5516
   22SOL    HW2  248   2.818   3.583   1.541  0.5579  1.5725 -0.2695
   23SOL     OW  249   3.262   4.180   1.666  0.2775 -0.4890 -0.2903
   23SOL    HW1  250   3.179   4.219   1.625 -0.5254 -0.5707  1.1872
   23SOL    HW2  251   3.236   4.106   1.729  1.4935 -0.6154  0.0955
   24SOL     OW  252   2.627   1.548   0.764  0.1366 -0.4720 -0.3359
   24SOL    HW1  253   2.576   1.625   0.725 -0.3331 -0.4477  0.3187
   24SOL    HW2  254   2.570   1.503   0.833 -0.1095 -2.1853 -1.5932
   25SOL     OW  255   1.622   3.750   1.517 -0.5407 -0.3838 -0.1229
   25SOL    HW1  256   1.566   3.791   1.445 -0.6972 -0.1497  0.1323
   25SOL    HW2  257   1.563   3.699   1.580 -0.8194  1.8524  1.5374
   26SOL     OW  258   3.164   4.218   2.859 -0.1452 -0.0659 -0.1308
   26SOL    HW1  259   3.138   4.276   2.783 -0.0772 -0.8215 -0.7471
   26SOL    HW2  260   3.083   4.196   2.914 -0.4800 -0.8146 -0.9090
   27SOL     OW  261   1.168   3.988   2.808 -0.1676 -0.0265  0.0574
   27SOL    HW1  262   1.201   4.043   2.731  0.2200 -0.3303  0.0050
   27SOL    HW2  263   1.204   4.027   2.893 -2.8755  2.0591  0.3884
   28SOL     OW  264   4.221   2.198   1.688 -0.4111  0.5118  0.3623
   28SOL    HW1  265   4.283   2.221   1.612 -1.2452 -3.0029 -1.6004
   28SOL    HW2  266   4.224   2.271   1.756  2.2180  2.7287 -1.8916
   29SOL     OW  267   0.727   1.316   2.732  0.1178  0.0217 -0.4167
   29SOL    HW1  268   0.801   1.327   2.665  0.9027  1.7781  0.6725
   29SOL    HW2  269   0.663   1.248   2.698  0.3607  0.9869 -3.0751
   30SOL     OW  270   1.400   1.985   2.115 -0.1491 -0.2811  0.4174
   30SOL    HW1  271   1.403   1.900   2.063 -1.6328 -0.4508  0.5435
   30SOL    HW2  272   1.390   2.062   2.051  0.2915 -0.2798  0.3480
   31SOL     OW  273   0.856   1.647   1.979  0.1582  0.0833 -0.2347
   31SOL    HW1  274   0.948   1.686   1.984  0.2703 -0.1002 -0.7073
   31SOL    HW2  275   0.862   1.549   1.995  0.0282  0.0945 -0.1255
   32SOL     OW  276   4.065   2.346   3.574 -0.2938  0.3708 -0.3391
   32SOL    HW1  277   4.050   2.313   3.667  0.2284 -0.0094 -0.3868
   32SOL    HW2  278   4.152   2.395   3.570 -0.1785  0.1397 -0.6946
   33SOL     OW  279   1.707   3.466   1.910  0.0323 -0.2395  0.1998
   33SOL    HW1  280   1.783   3.406   1.890 -0.8839 -1.1517 -0.6763
   33SOL    HW2  281   1.737   3.561   1.904  1.2910 -0.5933  0.7544
   34SOL     OW  282   0.970   0.504   1.982  0.0060 -0.3050  0.0602
   34SOL    HW1  283   0.930   0.561   2.054 -2.4510  0.0794 -1.4588
   34SOL    HW2  284   0.955   0.548   1.893  1.5230 -1.4997 -0.8385
   35SOL     OW  285   0.732   0.079   3.907  0.7568 -0.0463  0.1941
   35SOL    HW1  286   0.640   0.072   3.947  0.5850  1.7792  0.2088
   35SOL    HW2  287   0.724   0.091   3.808  1.0638 -1.4380 -0.0163
   36SOL     OW  288   0.098   2.857   1.016 -0.0718 -0.0575 -0.2113
   36SOL    HW1  289   0.096   2.763   0.983 -0.6717 -0.1131 -0.0348
   36SOL    HW2  290   0.037   2.866   1.095  0.0373  0.4629 -0.1757
   37SOL     OW  291   0.119   0.232   2.515  0.0188  0.5402 -0.1963
   37SOL    HW1  292   0.146   0.304   2.580  0.4666  0.1532  0.0460
   37SOL    HW2  293   0.037   0.262   2.466 -1.0686  0.3193  1.4246
   38SOL     OW  294   0.076   3.211   2.390  0.2508  0.7579  0.5021
   38SOL    HW1  295   0.117   3.136   2.337 -0.8914  0.9573 -0.7186
   38SOL    HW2  296   0.086   3.192   2.487 -0.6395 -1.3631  0.2336
   39SOL     OW  297   3.885   3.855   2.820  0.1560  0.1330 -0.3959
   39SOL    HW1  298   3.898   3.946   2.860  1.4101 -0.3259  0.2737
   39SOL    HW2  299   3.938   3.788   2.872  0.8124 -0.6793 -2.0589
   40SOL     OW  300   2.582   3.250   2.856  0.0078 -0.3355 -0.3705
   40SOL    HW1  301   2.641   3.321   2.894 -0.6471 -0.1962  0.4173
   40SOL    HW2  302   2.498   3.244   2.910 -0.5904 -0.7161 -1.3049
   41SOL     OW  303   0.422   2.934   2.439  0.1722  0.0845 -0.4844
   41SOL    HW1  304   0.400   2.859   2.501 -0.0476 -0.1228 -0.8092
   41SOL    HW2  305   0.389   3.020   2.479  1.4880  0.1767  0.4503
   42SOL     OW  306   0.448   0.287   3.665 -0.1810  0.2874 -0.3913
   42SOL    HW1  307   0.545   0.301   3.683 -0.9053  2.8241  2.3285
   42SOL    HW2  308   0.397   0.366   3.699 -3.2603 -1.0789 -1.4884
   43SOL     OW  309   3.134   2.194   3.155 -0.2599  0.6232 -0.4030
   43SOL    HW1  310   3.215   2.145   3.120 -0.0530  0.0351  0.8387
   43SOL    HW2  311   3.161   2.248   3.235 -0.9768  0.9336 -0.3681
   44SOL     OW  312   1.986   2.224   3.317  0.0612 -0.2106  0.6831
   44SOL    HW1  313   1.981   2.127   3.342 -0.7207 -0.5752 -0.8041
   44SOL    HW2  314   1.893   2.259   3.303  0.3812  0.5505  0.4214
   45SOL     OW  315   3.024   2.553   2.708 -0.1796  0.0991  0.3169
   45SOL    HW1  316   3.070   2.499   2.778  1.8232 -0.9349 -1.6328
   45SOL    HW2  317   3.066   2.644   2.703  0.5739 -0.2762 -0.3685
   46SOL     OW  318   0.614   1.376   2.227  0.6762  0.4259  0.7764
   46SOL    HW1  319   0.615   1.330   2.315  0.7836 -0.6397  0.2353
   46SOL    HW2  320   0.602   1.308   2.154  0.8145  1.2576 -0.0461
   47SOL     OW  321   1.504   2.810   2.668  0.2513  0.3404 -0.1960
   47SOL    HW1  322   1.410   2.827   2.635  0.7292  2.5343 -0.6366
   47SOL    HW2  323   1.561   2.782   2.591 -0.0074 -0.8970  0.0533
   48SOL     OW  324   2.700   1.766   2.908 -0.1255 -0.7580  0.2745
   48SOL    HW1  325   2.669   1.694   2.970 -0.1299 -0.6594  0.3876
   48SOL    HW2  326   2.625   1.793   2.848 -0.4987  0.0169  1.0591
   49SOL     OW  327   2.970   3.403   3.608  0.2981 -0.2142  0.0831
   49SOL    HW1  328   2.949   3.315   3.565 -0.0761  0.7940 -1.8909
   49SOL    HW2  329   2.893   3.430   3.666  0.3662 -1.1189  0.6080
   50SOL     OW  330   2.229   2.464   0.328  0.1935  0.0852  0.3329
   50SOL    HW1  331   2.223   2.459   0.228  0.5493  0.8747  0.2658
   50SOL    HW2  332   2.141   2.438   0.368 -0.6581  1.8710 -0.2686
   51SOL     OW  333   0.753   3.398   3.830  0.6573 -0.4436  0.2797
   51SOL    HW1  334   0.731   3.342   3.911 -0.1792  0.7130  0.8903
   51SOL    HW2  335   0.728   3.493   3.849 -2.4903 -0.5667 -2.4052
   52SOL     OW  336   1.816   2.141   2.789 -0.2646 -0.8228 -0.0548
   52SOL    HW1  337   1.853   2.225   2.829  0.8090 -1.3455  0.0864
   52SOL    HW2  338   1.729   2.161   2.745 -1.4116 -0.1405  2.3184
   53SOL     OW  339   2.462   3.290   0.086  0.0112  0.5279 -0.3157
   53SOL    HW1  340   2.366   3.267   0.068 -0.0485  0.1886  0.4028
   53SOL    HW2  341   2.518   3.208   0.074 -0.1926 -0.0721  2.1734
   54SOL     OW  342   0.387   3.938   3.347 -0.1674  0.1561  0.6764
   54SOL    HW1  343   0.376   4.003   3.272  0.2909 -0.9893 -0.4108
   54SOL    HW2  344   0.298   3.924   3.390 -0.5759  0.3265 -0.0859
   55SOL     OW  345   3.946   0.399   2.522  0.4634 -0.2259 -1.2051
   55SOL    HW1  346   3.880   0.431   2.454 -1.8115 -2.5568 -0.2790
   55SOL    HW2  347   3.948   0.462   2.599 -2.8514 -1.3322 -0.0368
   56SOL     OW  348   2.251   1.268   0.738  0.6914 -0.6571 -0.2009
   56SOL    HW1  349   2.176   1.330   0.760  0.5961 -1.3310  1.5758
   56SOL    HW2  350   2.330   1.291   0.795  2.1460  0.5279 -2.5814
   57SOL     OW  351   1.469   2.807   2.077 -0.1149 -1.3344  0.2263
   57SOL    HW1  352   1.412   2.832   1.998  0.5878  0.5839  0.2613
   57SOL    HW2  353   1.504   2.891   2.119 -0.7756 -2.2664  2.8329
   58SOL     OW  354   3.160   2.657   0.816  0.0579 -0.5671 -0.5146
   58SOL    HW1  355   3.186   2.689   0.724  1.8245 -0.0574  0.1043
   58SOL    HW2  356   3.169   2.733   0.880 -2.5348 -0.5383 -0.0998
   59SOL     OW  357   1.612   3.384   1.467  0.4744  0.5104  0.3053
   59SOL    HW1  358   1.642   3.302   1.516 -1.8829 -1.3302 -1.0819
   59SOL    HW2  359   1.553   3.438   1.528  0.4615  0.1313  0.6344
   60SOL     OW  360   1.391   2.561   0.485  0.3484 -0.2944 -0.5400
   60SOL    HW1  361   1.325   2.546   0.559  0.3850 -0.1046 -0.4692
   60SOL    HW2  362   1.345   2.600   0.406  0.3361 -0.3616 -0.5660
   61SOL     OW  363   4.190   4.248   1.538 -0.3773  0.2747  0.2380
   61SOL    HW1  364   4.150   4.204   1.618 -0.1016  0.5675  0.5405
   61SOL    HW2  365   4.191   4.184   1.462  0.1382 -0.2851  0.7065
   62SOL     OW  366   0.564   3.939   1.716 -0.0681 -0.8867  0.1630
   62SOL    HW1  367   0.637   4.002   1.743 -2.4411  1.3912  1.7678
   62SOL    HW2  368   0.543   3.955   1.619 -0.5711  0.7952  0.5199
   63SOL     OW  369   2.682   3.358   3.693 -0.2160 -0.3964 -0.4743
   63SOL    HW1  370   2.679   3.293   3.770 -0.9687  0.3579  0.1582
   63SOL    HW2  371   2.639   3.316   3.613 -0.8037 -0.6502 -0.0365
   64SOL     OW  372   0.393   3.168   3.047 -0.3027  0.2903 -0.6979
   64SOL    HW1  373   0.424   3.142   3.138 -0.0708  2.3148 -0.1301
   64SOL    HW2  374   0.362   3.087   2.998  1.6371 -1.1775  0.3553
   65SOL     OW  375   1.437   3.886   2.750  0.3807  0.0674  0.1530
   65SOL    HW1  376   1.451   3.833   2.833 -0.2707 -3.0570 -1.5642
   65SOL    HW2  377   1.339   3.888   2.729  0.6027  0.2149 -0.9116
   66SOL     OW  378   2.697   1.146   3.386  0.3817  0.5483  0.8889
   66SOL    HW1  379   2.611   1.195   3.402  0.6502  1.3077  0.0811
   66SOL    HW2  380   2.688   1.052   3.420 -1.9306 -0.4639 -2.0747
   67SOL     OW  381   2.680   2.346   2.959  0.1196  0.4043  0.6387
   67SOL    HW1  382   2.677   2.443   2.984  1.3265  0.6498 -0.1162
   67SOL    HW2  383   2.757   2.330   2.898 -1.2013 -0.6842 -0.8065
   68SOL     OW  384   2.677   4.183   2.914  0.1887  0.3286  0.3950
   68SOL    HW1  385   2.611   4.112   2.940  1.2411 -1.3767 -1.3147
   68SOL    HW2  386   2.696   4.175   2.816  0.3256  3.0447  0.1342
   69SOL     OW  387   1.067   0.714   4.162 -0.1443  0.3497  0.0407
   69SOL    HW1  388   1.123   0.711   4.078  0.0312  0.5811  0.1471
   69SOL    HW2  389   1.128   0.720   4.241 -0.3150  0.2613  0.1790
   70SOL     OW  390   0.408   2.194   2.550 -0.0121  0.1177  0.2051
   70SOL    HW1  391   0.507   2.188   2.568  0.1969  0.0853 -0.8838
   70SOL    HW2  392   0.393   2.203   2.452 -1.1433 -0.7872  0.2741
   71SOL     OW  393   3.033   3.538   2.459  0.0182  0.1797  0.3893
   71SOL    HW1  394   3.004   3.626   2.495  0.6697  0.1704  0.9608
   71SOL    HW2  395   3.037   3.543   2.359 -1.0921  0.4282  0.3513
   72SOL     OW  396   2.343   1.468   0.262 -0.0520 -0.0247 -0.4340
   72SOL    HW1  397   2.311   1.430   0.175 -0.8326  1.0282 -0.6308
   72SOL    HW2  398   2.273   1.454   0.332  0.0932  0.1060 -0.2622
   73SOL     OW  399   4.220   4.062   2.341  0.1669 -0.3199  0.2116
   73SOL    HW1  400   4.230   3.963   2.357 -1.5589 -0.3259  1.5516
   73SOL    HW2  401   4.271   4.112   2.412  1.6617 -0.1952 -0.8992
   74SOL     OW  402   0.427   2.647   1.038 -0.1041 -0.9130 -0.0914
   74SOL    HW1  403   0.424   2.741   1.072  0.5167 -1.1935  0.7750
   74SOL    HW2  404   0.383   2.586   1.104  1.3342 -1.4972  0.3783
   75SOL     OW  405   4.003   2.160   1.492 -0.1883  0.4674 -0.0457
   75SOL    HW1  406   4.074   2.125   1.431  0.9021  0.1049  1.3590
   75SOL    HW2  407   4.047   2.206   1.570 -1.4331 -0.9691  1.5871
   76SOL     OW  408   1.088   3.228   0.468 -0.0373 -0.2574 -0.2140
   76SOL    HW1  409   1.014   3.290   0.440 -1.4873 -1.5422  0.6377
   76SOL    HW2  410   1.140   3.200   0.387 -0.7365  0.3504 -0.8865
   77SOL     OW  411   2.658   3.576   2.169  0.3444 -0.0507  0.1924
   77SOL    HW1  412   2.736   3.610   2.221  0.5465  0.4457 -0.4208
   77SOL    HW2  413   2.689   3.499   2.111  0.4542  0.3323 -0.2669
   78SOL     OW  414   2.958   0.381   3.810 -0.4401  0.0805  0.4213
   78SOL    HW1  415   2.859   0.379   3.801 -0.6231 -0.7427  2.1322
   78SOL    HW2  416   3.000   0.349   3.725 -1.5645  1.6893 -0.8007
   79SOL     OW  417   3.263   3.135   0.543 -0.1281 -0.0295  0.7626
   79SOL    HW1  418   3.181   3.125   0.487  0.2820  2.3220 -0.4091
   79SOL    HW2  419   3.236   3.159   0.636 -0.7749 -1.1541  0.8815
   80SOL     OW  420   2.496   2.637   2.609 -0.4463 -0.1659  0.5142
   80SOL    HW1  421   2.454   2.711   2.556 -0.4630 -0.9134 -0.5276
   80SOL    HW2  422   2.588   2.665   2.637  0.0900 -0.2904 -1.0740
   81SOL     OW  423   0.426   3.621   2.829 -0.2572  0.0520  0.2349
   81SOL    HW1  424   0.342   3.662   2.795 -1.2448 -1.4180  0.7799
   81SOL    HW2  425   0.430   3.632   2.928 -0.8128 -1.5475  0.4644
   82SOL     OW  426   3.330   1.340   0.353  0.1322  0.2323 -0.4745
   82SOL    HW1  427   3.386   1.416   0.387 -0.2353  1.0646 -1.6743
   82SOL    HW2  428   3.237   1.352   0.387  0.2900 -0.2410  0.1475
   83SOL     OW  429   3.663   3.745   2.621 -0.2507  0.1042 -0.1261
   83SOL    HW1  430   3.571   3.716   2.648  0.1675 -1.1441  0.0341
   83SOL    HW2  431   3.716   3.766   2.702  0.2430 -1.2552 -0.0661
   84SOL     OW  432   3.739   1.364   1.065 -0.4887 -0.4224  0.1944
   84SOL    HW1  433   3.671   1.361   0.992  0.0440  0.0251 -0.3325
   84SOL    HW2  434   3.708   1.426   1.137 -0.4917  0.0378 -0.1993
   85SOL     OW  435   3.091   0.135   2.655  0.0790 -0.1062 -0.5197
   85SOL    HW1  436   3.041   0.088   2.583 -2.8784 -1.8372  2.3889
   85SOL    HW2  437   3.046   0.222   2.675 -0.0728 -0.3382  0.1962
   86SOL     OW  438   1.999   3.307   2.108 -0.1193 -0.4123 -0.1868
   86SOL    HW1  439   2.073   3.244   2.082  0.4366 -0.5200  1.5398
   86SOL    HW2  440   1.927   3.304   2.039  1.4387 -0.3709 -1.8814
   87SOL     OW  441   3.984   4.126   2.916 -0.2234 -0.3793 -0.0217
   87SOL    HW1  442   4.072   4.105   2.872 -0.3693 -0.2493 -0.3744
   87SOL    HW2  443   3.953   4.216   2.886 -0.6994 -0.6157 -0.2428
   88SOL     OW  444   3.152   2.424   2.487 -0.3272 -0.0511 -0.4493
   88SOL    HW1  445   3.065   2.429   2.535  0.1500 -1.0995  0.5583
   88SOL    HW2  446   3.135   2.417   2.388 -1.3196  1.6215 -0.4297
   89SOL     OW  447   3.081   3.618   1.296 -0.6179  0.2062 -0.0331
   89SOL    HW1  448   3.158   3.659   1.344 -1.2447  0.8341  0.4416
   89SOL    HW2  449   3.003   3.609   1.358 -0.9942 -0.2668 -0.5526
   90SOL     OW  450   3.370   2.046   0.491  0.1915  0.3550  0.4742
   90SOL    HW1  451   3.468   2.027   0.484  0.0824  0.2007 -1.1242
   90SOL    HW2  452   3.328   1.982   0.555  0.9195 -0.4571  0.1504
   91SOL     OW  453   0.231   2.149   0.614 -0.0809  0.5925  0.2971
   91SOL    HW1  454   0.148   2.163   0.560 -2.1924  0.4396  3.2810
   91SOL    HW2  455   0.231   2.214   0.690  1.6484 -0.6009  1.3653
   92SOL     OW  456   2.593   3.149   4.011  0.6654 -0.6681  0.3048
   92SOL    HW1  457   2.555   3.241   4.003  1.5853 -0.3162 -0.1798
   92SOL    HW2  458   2.543   3.088   3.950  0.8820 -0.2058 -0.3458
   93SOL     OW  459   1.500   2.654   1.778 -0.1251 -0.8852 -0.5039
   93SOL    HW1  460   1.436   2.729   1.798 -2.4809 -2.2341 -2.4212
   93SOL    HW2  461   1.555   2.678   1.698  2.0753  0.3393  1.2334
   94SOL     OW  462   2.451   3.052   3.810  0.1412  0.5018  0.1077
   94SOL    HW1  463   2.489   3.076   3.721 -1.1365 -0.1854 -0.6514
   94SOL    HW2  464   2.370   2.995   3.797 -0.0889  0.4129  1.7161
   95SOL     OW  465   0.992   3.881   2.596 -0.5023  0.4524 -0.8638
   95SOL    HW1  466   1.026   3.921   2.682 -0.3725  0.9647 -1.1484
   95SOL    HW2  467   0.992   3.781   2.604 -1.9103  0.4964  0.2885
   96SOL     OW  468   1.837   3.295   0.816 -0.4721  0.4585 -0.1960
   96SOL    HW1  469   1.861   3.339   0.902 -0.5134 -0.4557  0.2913
   96SOL    HW2  470   1.913   3.304   0.752 -0.8447  2.0771 -0.4574
   97SOL     OW  471   3.848   3.685   0.004 -0.3323  0.3956 -0.1086
   97SOL    HW1  472   3.803   3.700   0.092 -0.0230  0.9074 -0.0383
   97SOL    HW2  473   3.831   3.763  -0.056  1.0954  0.9728  0.1881
   98SOL     OW  474   0.159   3.973   2.185  0.2681  0.2016 -0.3787
   98SOL    HW1  475   0.077   4.020   2.216 -0.1726 -0.6256 -0.2469
   98SOL    HW2  476   0.221   3.959   2.263  0.8681  1.4297 -0.6010
   99SOL     OW  477   2.908   2.759   1.784  0.2937  0.0116 -0.1148
   99SOL    HW1  478   2.907   2.691   1.710 -0.1570 -0.5865  0.4309
   99SOL    HW2  479   2.952   2.719   1.864 -1.1724 -0.1052  0.6472
  100SOL     OW  480   3.836   2.378   1.441  0.5372  0.0991 -0.0536
  100SOL    HW1  481   3.845   2.407   1.346 -1.0543  0.3745 -0.1385
  100SOL    HW2  482   3.875   2.286   1.451 -0.7983 -0.6551 -1.3707
  101SOL     OW  483   1.556   2.428   0.325 -0.1114 -0.0608 -0.6283
  101SOL    HW1  484   1.576   2.336   0.359  2.2302  1.1095  1.5432
  101SOL    HW2  485   1.503   2.478   0.394  0.3527  0.8191 -0.8905
  102SOL     OW  486   3.593   1.730   1.232  0.1039  0.5350 -0.3661
  102SOL    HW1  487   3.648   1.654   1.198  2.0643  2.4389 -1.6966
  102SOL    HW2  488   3.593   1.729   1.332  0.1711 -1.1270 -0.3655
  103SOL     OW  489   2.382   3.871   0.032  0.1700  0.3518  0.0084
  103SOL    HW1  490   2.389   3.796   0.097  0.2301 -0.9513 -1.4278
  103SOL    HW2  491   2.461   3.932   0.042 -0.0713  0.4402  1.4458
  104SOL     OW  492   0.730   3.113   2.372  0.1791 -0.0316 -0.1022
  104SOL    HW1  493   0.696   3.032   2.324  0.1427 -0.8130  1.1802
  104SOL    HW2  494   0.816   3.143   2.330  0.2495 -0.8042 -0.5248
  105SOL     OW  495   0.488   1.713   0.595  0.0465  0.3152 -0.4654
  105SOL    HW1  496   0.414   1.778   0.576 -1.7652 -1.7426 -0.9615
  105SOL    HW2  497   0.449   1.630   0.633  2.1080 -0.9690 -0.9957
  106SOL     OW  498   1.837   1.417   0.600  0.2797  0.4630  0.4735
  106SOL    HW1  499   1.912   1.427   0.535  0.6432  1.3525  1.0034
  106SOL    HW2  500   1.802   1.323   0.596 -0.5423  0.8178 -1.8778
  107SOL     OW  501   3.536   1.372   0.884 -0.1240  0.2533  0.7869
  107SOL    HW1  502   3.449   1.409   0.915 -1.3785 -0.8282 -1.2539
  107SOL    HW2  503   3.526   1.273   0.868  1.2342  0.2585 -0.2622
  108SOL     OW  504   3.255   2.943   3.130  0.6093  0.1977 -0.6701
  108SOL    HW1  505   3.250   3.043   3.130  1.4813  0.2777 -2.3929
  108SOL    HW2  506   3.315   2.914   3.205 -1.3480  0.7910  1.2229
  109SOL     OW  507   3.835   4.143   2.395  0.0557 -0.2457  0.2179
  109SOL    HW1  508   3.836   4.233   2.438  0.5340 -0.0174 -0.2518
  109SOL    HW2  509   3.741   4.111   2.386 -0.0949  0.0626  0.6834
  110SOL     OW  510   1.849   3.025   1.720  0.3339 -0.1857 -0.1099
  110SOL    HW1  511   1.912   2.977   1.659 -1.1957 -2.2109 -0.1775
  110SOL    HW2  512   1.797   2.959   1.773  0.1984  1.4815  1.9936
  111SOL     OW  513   2.565   3.000   1.518  0.2113  0.0274  0.6386
  111SOL    HW1  514   2.665   3.007   1.510  0.0934  1.1110 -0.1452
  111SOL    HW2  515   2.524   3.023   1.430 -0.7155 -1.2479  0.7180
  112SOL     OW  516   1.200   2.256   2.845  0.1945 -0.0794  0.7322
  112SOL    HW1  517   1.250   2.266   2.759  3.8863 -0.2898  2.6943
  112SOL    HW2  518   1.186   2.159   2.864  0.1409 -0.0602  0.7912
  113SOL     OW  519   1.839   2.148   1.054  0.1037 -0.6498 -0.1702
  113SOL    HW1  520   1.931   2.176   1.025  0.7496 -1.8885  0.5805
  113SOL    HW2  521   1.839   2.132   1.153 -1.8236  2.6338  0.4844
  114SOL     OW  522   0.179   3.447   2.714  0.2801  0.0483 -0.0156
  114SOL    HW1  523   0.145   3.540   2.733 -0.5104 -0.3114  0.3751
  114SOL    HW2  524   0.251   3.452   2.645  1.1665  1.0952  0.9451
  115SOL     OW  525   4.015   0.392   1.155 -0.0814 -0.0474 -0.2928
  115SOL    HW1  526   4.019   0.441   1.242 -0.3552 -0.2511 -0.1623
  115SOL    HW2  527   4.071   0.310   1.162 -0.5971 -0.3919 -0.0906
  116SOL     OW  528   3.207   2.643   2.137 -0.3898  0.6668 -0.4242
  116SOL    HW1  529   3.278   2.632   2.067  1.1144 -0.6701  1.2121
  116SOL    HW2  530   3.245   2.694   2.214 -0.8952 -0.9041  0.8952
  117SOL     OW  531   2.083   2.899   3.213  0.2663 -0.3153 -0.4063
  117SOL    HW1  532   2.074   2.845   3.297  0.1744  0.1492 -0.1149
  117SOL    HW2  533   2.071   2.839   3.134  0.0677 -0.7037 -0.0843
  118SOL     OW  534   0.635   3.476   4.208  0.0754 -0.5029  0.4673
  118SOL    HW1  535   0.650   3.501   4.112  2.6347 -0.6908  0.7587
  118SOL    HW2  536   0.705   3.411   4.237 -1.7184 -1.8799  1.9992
  119SOL     OW  537   2.380   2.876   3.601 -0.1386  0.0303  0.0539
  119SOL    HW1  538   2.417   2.886   3.509 -0.1015  1.0474  0.1768
  119SOL    HW2  539   2.281   2.878   3.597 -0.1295  1.0500  0.1338
  120SOL     OW  540   1.450   2.544   3.090 -0.1117 -0.2971  0.1637
  120SOL    HW1  541   1.410   2.581   3.174  0.4314 -0.7291  0.6205
  120SOL    HW2  542   1.464   2.618   3.025  0.2050  0.1742  0.7564
  121SOL     OW  543   0.655   1.070   1.830 -0.0944 -0.2457 -0.0867
  121SOL    HW1  544   0.603   1.130   1.891 -0.3979  1.0605 -1.5712
  121SOL    HW2  545   0.617   0.978   1.833 -1.5369  0.3317  0.0006
  122SOL     OW  546   3.795   1.686   0.860  0.4248  0.0890  0.5839
  122SOL    HW1  547   3.795   1.633   0.776  0.5267 -1.2348  1.3966
  122SOL    HW2  548   3.709   1.737   0.867  1.1074  1.5900 -1.1292
  123SOL     OW  549   2.664   3.625   3.715  0.3886 -0.4584 -0.2145
  123SOL    HW1  550   2.668   3.525   3.710  1.3118 -0.6529  2.5390
  123SOL    HW2  551   2.579   3.653   3.760  0.2111 -0.0016 -0.8192
  124SOL     OW  552   1.452   3.472   2.749  0.1150  0.2859  0.4741
  124SOL    HW1  553   1.417   3.405   2.815  0.4389  1.3521  1.7877
  124SOL    HW2  554   1.533   3.517   2.788  0.5163  0.7246 -0.8041
  125SOL     OW  555   1.750   2.458   2.624  0.5622  0.4492  0.0530
  125SOL    HW1  556   1.799   2.416   2.548  0.2820 -0.5085  0.3857
  125SOL    HW2  557   1.799   2.438   2.709 -0.9133 -1.4373  0.5242
  126SOL     OW  558   0.069   2.596   2.270  0.3327  0.3835  0.1573
  126SOL    HW1  559   0.046   2.607   2.367  0.1820  1.0103  0.0498
  126SOL    HW2  560   0.158   2.551   2.263 -0.9432 -2.4730  0.5867
  127SOL     OW  561   0.885   1.625   1.665  0.8811 -0.0795 -0.1311
  127SOL    HW1  562   0.829   1.584   1.592  0.2940  2.4749 -1.2374
  127SOL    HW2  563   0.824   1.657   1.738  0.9003  1.7917 -0.8702
  128SOL     OW  564   2.551   3.043   0.025  0.0477  0.0295  0.5214
  128SOL    HW1  565   2.640   3.024   0.065 -0.4292  1.5363  2.4356
  128SOL    HW2  566   2.559   3.040  -0.075  2.5421  1.3508  0.5898
  129SOL     OW  567   0.444   3.434   1.779 -0.4051 -0.4675  0.4957
  129SOL    HW1  568   0.505   3.489   1.835  1.5688 -1.3812 -0.6597
  129SOL    HW2  569   0.413   3.355   1.831  3.3853 -2.6821 -0.2244
  130SOL     OW  570   1.281   1.673   1.193  0.0755  0.2299  0.3970
  130SOL    HW1  571   1.252   1.593   1.246 -1.3629 -0.8694 -1.8468
  130SOL    HW2  572   1.200   1.716   1.153  1.0118  1.6679 -0.0125
  131SOL     OW  573   2.510   4.191   1.097 -0.6013  0.5705  0.3161
  131SOL    HW1  574   2.517   4.110   1.039  1.0216 -0.4560  1.8570
  131SOL    HW2  575   2.419   4.193   1.140 -2.1978  1.8395 -2.8038
  132SOL     OW  576   0.906   2.523   3.040  0.3073  0.5056 -0.1283
  132SOL    HW1  577   1.006   2.521   3.048  0.3774  0.4018 -0.9947
  132SOL    HW2  578   0.881   2.562   2.952 -0.4150  0.2484 -0.0380
  133SOL     OW  579   3.221   2.257   2.725 -0.3287 -0.1732  0.4455
  133SOL    HW1  580   3.230   2.303   2.637  1.2538  0.0378  0.6994
  133SOL    HW2  581   3.160   2.178   2.715 -1.1132  0.5401 -0.5493
  134SOL     OW  582   0.553   0.425   1.103 -0.4455 -0.1218  0.4643
  134SOL    HW1  583   0.585   0.517   1.127 -1.5366  0.2046  0.7350
  134SOL    HW2  584   0.524   0.378   1.187  0.5993 -0.9160  0.3928
  135SOL     OW  585   4.011   3.614   3.798  0.3746 -0.0571 -0.2711
  135SOL    HW1  586   4.020   3.638   3.895  0.4553 -0.1420 -0.2573
  135SOL    HW2  587   4.096   3.637   3.751  0.0304  0.7917 -0.4963
  136SOL     OW  588   4.150   2.096   1.042 -0.3475  0.4676  0.2122
  136SOL    HW1  589   4.153   2.159   0.964  0.8294  0.0149 -0.1224
  136SOL    HW2  590   4.201   2.013   1.019 -2.1446 -0.7837  0.5174
  137SOL     OW  591   1.974   3.143   3.725 -0.1359  0.0160  0.0516
  137SOL    HW1  592   1.958   3.119   3.630  0.2358 -1.0841  0.2500
  137SOL    HW2  593   2.045   3.213   3.730 -0.6054  0.5504 -0.4961
  138SOL     OW  594   0.275   0.781   2.803  0.5616  0.1067  0.4702
  138SOL    HW1  595   0.353   0.785   2.865 -1.2383 -1.6771  3.0922
  138SOL    HW2  596   0.284   0.852   2.734  3.8486  0.7407  1.3675
  139SOL     OW  597   0.471   3.869   4.133  0.5780 -0.1035 -0.1146
  139SOL    HW1  598   0.431   3.778   4.133 -0.6043  0.3992 -0.7795
  139SOL    HW2  599   0.482   3.901   4.039  0.0331  0.8450  0.1281
  140SOL     OW  600   2.228   2.821   0.733  0.3066  0.3783 -0.0332
  140SOL    HW1  601   2.293   2.884   0.776  1.3818  0.7805 -2.0920
  140SOL    HW2  602   2.186   2.865   0.654  0.3138 -1.1256 -0.9283
  141SOL     OW  603   2.533   0.470   1.010  0.0136  0.5003 -0.1993
  141SOL    HW1  604   2.452   0.448   1.064 -0.2050  0.1305 -0.6663
  141SOL    HW2  605   2.585   0.386   0.991  1.5273  0.9452  1.6611
  142SOL     OW  606   2.190   3.316   3.669 -0.1820  0.3143  0.0096
  142SOL    HW1  607   2.269   3.255   3.675 -1.9026 -2.2978 -1.6879
  142SOL    HW2  608   2.162   3.342   3.761  1.7556  0.0981  0.6991
  143SOL     OW  609   1.760   3.579   0.340  0.3283 -0.2578 -0.2282
  143SOL    HW1  610   1.741   3.559   0.244 -0.3570  0.5370 -0.2708
  143SOL    HW2  611   1.754   3.678   0.355 -1.0936 -0.4817  0.9409
  144SOL     OW  612   1.626   3.076   3.211 -0.0834 -0.1124 -0.5980
  144SOL    HW1  613   1.597   3.145   3.278  0.9583 -0.0818 -0.1560
  144SOL    HW2  614   1.546   3.028   3.177 -0.5883 -0.7556  1.3764
  145SOL     OW  615   0.604   2.654   2.986  0.0201 -0.7036  0.0970
  145SOL    HW1  616   0.702   2.655   2.969 -0.0211  1.2773 -0.2964
  145SOL    HW2  617   0.588   2.655   3.085  0.5967  3.8244  0.3835
  146SOL     OW  618   2.780   1.852   0.813  0.1730  0.1046 -0.7872
  146SOL    HW1  619   2.703   1.810   0.764 -0.0451 -1.3629  0.7265
  146SOL    HW2  620   2.839   1.780   0.849  1.6710  1.1980 -0.9675
  147SOL     OW  621   2.661   2.410   0.050 -0.1380 -0.9914  0.1608
  147SOL    HW1  622   2.581   2.367   0.007 -0.5092  0.0728 -0.2656
  147SOL    HW2  623   2.632   2.457   0.133  0.4632 -2.4769  1.2404
  148SOL     OW  624   0.257   3.415   2.449 -0.1650  0.1567  0.4498
  148SOL    HW1  625   0.322   3.451   2.383  0.1555 -0.4570  0.4185
  148SOL    HW2  626   0.184   3.367   2.401 -0.9570  1.3215  0.4571
  149SOL     OW  627   2.497   3.562   3.008  0.6003 -0.2471 -0.4520
  149SOL    HW1  628   2.417   3.525   2.960  0.4695 -0.8073  0.1876
  149SOL    HW2  629   2.535   3.491   3.067  0.7719  0.4230  0.2557
  150SOL     OW  630   2.993   3.323   2.845  0.4043  0.1667  0.5450
  150SOL    HW1  631   3.072   3.262   2.840  0.4171  0.2857 -1.3810
  150SOL    HW2  632   3.021   3.409   2.888  1.5320  0.4714 -0.7269
  151SOL     OW  633   2.311   4.140   3.290  0.5840 -0.1427  0.1158
  151SOL    HW1  634   2.242   4.139   3.362  0.3931  1.9000  0.0083
  151SOL    HW2  635   2.266   4.124   3.202  0.0730  1.8954 -0.0402
  152SOL     OW  636   2.755   2.940   1.162  0.1331 -0.3579 -0.2582
  152SOL    HW1  637   2.804   2.864   1.204  1.2737 -0.2132 -1.3002
  152SOL    HW2  638   2.776   2.944   1.065 -0.9165  0.5229 -0.4694
  153SOL     OW  639   4.192   2.257   0.824  0.2707  0.9842 -0.3572
  153SOL    HW1  640   4.286   2.273   0.852  0.2657 -0.7760  0.8301
  153SOL    HW2  641   4.191   2.237   0.726  1.2836  0.1419 -0.2235
  154SOL     OW  642   0.482   2.366   1.409  0.0809  0.1557  0.2275
  154SOL    HW1  643   0.519   2.459   1.411  1.2874 -0.3135  1.4718
  154SOL    HW2  644   0.451   2.340   1.500 -1.1442 -0.3307 -0.3128
  155SOL     OW  645   0.283   0.917   2.558 -0.3304 -0.4790 -0.4016
  155SOL    HW1  646   0.344   0.970   2.499  0.7341 -0.6605  0.5152
  155SOL    HW2  647   0.209   0.880   2.502  0.8677 -0.9890 -1.7291
  156SOL     OW  648   1.342   2.046   3.311  0.9934 -0.1419 -0.1187
  156SOL    HW1  649   1.347   2.136   3.266 -1.6557  0.6495  0.9826
  156SOL    HW2  650   1.432   2.023   3.347  1.3498  3.1345  1.4827
  157SOL     OW  651   1.381   2.157   1.886 -0.0995  0.0089 -0.2381
  157SOL    HW1  652   1.438   2.137   1.807 -1.7270 -0.1674 -1.4291
  157SOL    HW2  653   1.388   2.255   1.907  0.1326  0.1174 -0.7856
  158SOL     OW  654   0.964   3.949   0.822  0.2310  0.1092 -0.4145
  158SOL    HW1  655   0.968   3.935   0.723  0.3221 -2.0682 -0.1425
  158SOL    HW2  656   0.984   3.863   0.868  1.2181  1.3180  1.5330
  159SOL     OW  657   1.192   3.089   3.032 -0.0934 -0.3074  0.5175
  159SOL    HW1  658   1.133   3.135   3.099  0.9388 -1.4582  2.3112
  159SOL    HW2  659   1.137   3.023   2.980 -1.3635  2.0951 -1.3645
  160SOL     OW  660   3.910   2.935   2.045  0.5445 -0.4105  0.0677
  160SOL    HW1  661   3.812   2.915   2.053  0.3057  0.4712 -0.4984
  160SOL    HW2  662   3.958   2.850   2.023 -0.3788 -0.5213 -1.7986
  161SOL     OW  663   0.756   4.129   1.774 -0.0751 -0.3044  0.1033
  161SOL    HW1  664   0.818   4.154   1.848 -1.0157  0.6759  0.5998
  161SOL    HW2  665   0.676   4.190   1.776 -1.6273 -2.2443  0.2244
  162SOL     OW  666   2.028   2.760   2.965 -0.2000 -0.0962  0.0935
  162SOL    HW1  667   2.071   2.822   2.899  1.7688  0.1019  1.4659
  162SOL    HW2  668   2.044   2.666   2.935 -1.7219 -0.0144 -1.1041
  163SOL     OW  669   0.245   4.062   2.901  0.0525  0.2236 -0.1250
  163SOL    HW1  670   0.281   4.013   2.822 -1.2015 -0.1635 -0.4823
  163SOL    HW2  671   0.317   4.118   2.941  0.4670  1.1805 -2.1086
  164SOL     OW  672   0.546   1.799   2.268  0.1075 -0.1416 -0.1443
  164SOL    HW1  673   0.628   1.742   2.259 -0.2644 -1.1459  2.1276
  164SOL    HW2  674   0.465   1.743   2.247 -0.0885  0.6299 -1.5870
  165SOL     OW  675   2.840   3.735   2.311 -0.3276  0.3205  0.0366
  165SOL    HW1  676   2.866   3.825   2.275 -0.2137  0.6262  0.8571
  165SOL    HW2  677   2.825   3.743   2.409 -0.4588 -0.5361  0.0884
  166SOL     OW  678   0.823   4.133   3.429  0.8271 -0.3753 -0.6641
  166SOL    HW1  679   0.820   4.212   3.368 -2.3945  0.7365  0.7081
  166SOL    HW2  680   0.778   4.056   3.384  0.9401 -0.3963 -0.7415
  167SOL     OW  681   3.617   4.197   1.827 -0.1623 -0.1069  0.7463
  167SOL    HW1  682   3.570   4.120   1.870 -0.1827 -0.5399 -0.0378
  167SOL    HW2  683   3.591   4.202   1.731  1.3234 -0.3066  0.3109
  168SOL     OW  684   1.794   1.793   0.192  0.5685 -0.3196  0.7360
  168SOL    HW1  685   1.767   1.698   0.200  1.3906 -0.7953 -1.4434
  168SOL    HW2  686   1.843   1.806   0.106 -0.3619  2.2740  0.5079
  169SOL     OW  687   2.953   3.737   0.581  0.3493  0.8125  0.0916
  169SOL    HW1  688   3.049   3.765   0.575  0.4379  0.7030  0.9139
  169SOL    HW2  689   2.925   3.736   0.677  0.3492 -1.9352  0.1462
  170SOL     OW  690   1.366   2.896   1.847 -0.2923  0.5889 -0.4468
  170SOL    HW1  691   1.396   2.991   1.851 -2.6628  1.3560  0.7059
  170SOL    HW2  692   1.268   2.893   1.827 -0.5407 -1.5532  0.7965
  171SOL     OW  693   3.492   4.159   0.274  0.1841 -0.1541 -0.6838
  171SOL    HW1  694   3.440   4.245   0.282  0.4219 -0.0973  0.4727
  171SOL    HW2  695   3.428   4.082   0.277  0.0999 -0.0639  0.1173
  172SOL     OW  696   2.641   1.707   0.465 -0.1235  0.5324 -0.4201
  172SOL    HW1  697   2.725   1.749   0.433  1.0924 -0.1420  1.7189
  172SOL    HW2  698   2.602   1.762   0.539 -0.1917 -0.4677  0.3059
  173SOL     OW  699   2.624   2.986   1.903  0.1286  0.9291 -0.1961
  173SOL    HW1  700   2.637   3.053   1.976  1.5802 -1.1819  1.6448
  173SOL    HW2  701   2.636   2.894   1.941 -2.5385 -0.4862 -2.4113
  174SOL     OW  702   3.900   3.941   1.094  0.5341 -0.6728  0.4996
  174SOL    HW1  703   3.994   3.909   1.086  1.1020  1.0709 -0.2623
  174SOL    HW2  704   3.894   4.007   1.168 -0.3743 -1.6495  1.3299
  175SOL     OW  705   1.552   2.289   2.705 -0.2108  0.5085 -0.1419
  175SOL    HW1  706   1.618   2.361   2.681  1.5505 -1.5428 -1.8002
  175SOL    HW2  707   1.478   2.290   2.637  0.0555  0.4414 -0.4340
  176SOL     OW  708   1.262   4.092   3.044 -0.8544  0.2421  0.5227
  176SOL    HW1  709   1.198   4.169   3.041 -0.9802  0.1262  0.2347
  176SOL    HW2  710   1.353   4.125   3.016 -1.3385 -0.1406 -1.6323
  177SOL     OW  711   2.380   3.654   0.625 -0.0797 -0.8166  0.5751
  177SOL    HW1  712   2.442   3.578   0.606 -1.2000 -1.7515  0.5629
  177SOL    HW2  713   2.305   3.653   0.559 -0.1929  0.2137  0.6706
  178SOL     OW  714   1.999   2.578   3.642 -0.2270  0.3710 -0.4145
  178SOL    HW1  715   1.925   2.517   3.612  0.6048  0.1051 -2.0862
  178SOL    HW2  716   2.042   2.540   3.723 -0.5348 -0.6237 -0.6986
  179SOL     OW  717   3.766   3.815   0.887  0.3982  0.1449  0.0374
  179SOL    HW1  718   3.827   3.861   0.952  0.4624 -0.8108  0.6696
  179SOL    HW2  719   3.699   3.761   0.937  0.7128 -0.9536 -0.6868
  180SOL     OW  720   3.379   3.485   3.275  0.3645 -0.1936  0.0731
  180SOL    HW1  721   3.472   3.521   3.274  0.2437  0.1346  0.3828
  180SOL    HW2  722   3.322   3.544   3.332  0.1641 -0.8864  0.6061
  181SOL     OW  723   0.540   1.247   1.990  0.6533  0.7544 -0.6285
  181SOL    HW1  724   0.450   1.226   2.028  0.7002 -1.3044 -1.4986
  181SOL    HW2  725   0.541   1.342   1.957 -1.1404  0.8681 -0.4465
  182SOL     OW  726   1.896   3.261   1.863  0.1101  0.3550 -0.6595
  182SOL    HW1  727   1.980   3.292   1.818  0.4393 -2.6742 -2.4241
  182SOL    HW2  728   1.867   3.175   1.821 -2.8148  0.2936  1.2496
  183SOL     OW  729   2.442   2.816   0.182  0.1792 -0.5380  0.0578
  183SOL    HW1  730   2.454   2.884   0.109 -0.4325 -2.5986 -2.1166
  183SOL    HW2  731   2.346   2.814   0.209  0.2995 -0.1677  0.5166
  184SOL     OW  732   0.459   1.879   1.996  0.1174  0.2399  0.3932
  184SOL    HW1  733   0.404   1.962   1.985 -2.1216 -0.9517  1.8807
  184SOL    HW2  734   0.489   1.873   2.091 -1.1356 -1.4306  0.7185
  185SOL     OW  735   0.119   2.482   2.891 -0.6051  0.2070  0.2431
  185SOL    HW1  736   0.181   2.447   2.821  1.5037 -0.4899  2.3298
  185SOL    HW2  737   0.060   2.407   2.923 -0.9093  0.3021 -0.0768
  186SOL     OW  738   0.214   0.955   1.996  0.6716 -0.0192 -0.3779
  186SOL    HW1  739   0.226   0.866   2.041  0.4869  0.4666  0.6479
  186SOL    HW2  740   0.130   0.953   1.942  0.4498 -0.3282 -0.0275
  187SOL     OW  741   1.770   0.344   1.060  0.4752  0.0429 -0.2592
  187SOL    HW1  742   1.852   0.374   1.010 -0.5492  0.0618 -1.9886
  187SOL    HW2  743   1.799   0.291   1.140  2.1643 -0.5629 -1.2147
  188SOL     OW  744   3.741   1.487   1.308 -0.0750  0.0119  0.2551
  188SOL    HW1  745   3.711   1.420   1.375  0.1837  1.3063  1.7409
  188SOL    HW2  746   3.821   1.535   1.344  0.1008  0.7092 -1.0171
  189SOL     OW  747   3.276   3.359   2.173 -0.1587  0.4868  0.2255
  189SOL    HW1  748   3.338   3.334   2.098 -0.9842 -0.4270 -0.1782
  189SOL    HW2  749   3.307   3.316   2.257  0.4293  1.0137  0.2780
  190SOL     OW  750   3.145   2.528   4.139 -0.5701 -0.4962  0.3057
  190SOL    HW1  751   3.114   2.604   4.195 -0.9100 -0.8151  0.5541
  190SOL    HW2  752   3.221   2.482   4.185  2.3085  1.9554 -1.5093
  191SOL     OW  753   1.810   0.223   0.301 -0.2052 -0.0114  0.0249
  191SOL    HW1  754   1.825   0.132   0.260 -0.8280 -0.4458  0.7459
  191SOL    HW2  755   1.752   0.277   0.240 -0.7063 -0.4734  0.0902
  192SOL     OW  756   4.063   1.763   3.613  0.5959 -0.5129  0.2303
  192SOL    HW1  757   4.009   1.829   3.561 -0.0639 -0.0699  1.4323
  192SOL    HW2  758   4.002   1.708   3.670  1.0268 -2.8611 -1.4312
  193SOL     OW  759   0.778   2.686   2.521 -0.2524 -0.5069  0.5833
  193SOL    HW1  760   0.754   2.589   2.518 -0.0478 -0.5438 -0.5098
  193SOL    HW2  761   0.710   2.735   2.574 -1.2419 -1.0183 -0.1833
  194SOL     OW  762   0.990   3.030   0.651 -0.8463 -0.3226 -0.1494
  194SOL    HW1  763   1.015   3.110   0.597 -0.8126 -1.0747 -1.2925
  194SOL    HW2  764   0.944   2.963   0.591 -2.2008 -0.5461  1.0840
  195SOL     OW  765   3.545   2.451   1.127  0.1996  0.0835 -0.2908
  195SOL    HW1  766   3.628   2.499   1.156  0.5980 -0.5852 -0.2832
  195SOL    HW2  767   3.497   2.506   1.059 -0.5565  1.5066  1.3471
  196SOL     OW  768   2.177   3.753   3.658 -0.2583 -0.1585  0.2257
  196SOL    HW1  769   2.185   3.786   3.564 -1.3022  0.3182  0.2942
  196SOL    HW2  770   2.088   3.710   3.671  0.1962 -0.9572  0.7790
  197SOL     OW  771   2.790   3.958   3.469  0.5936 -0.0423  0.5156
  197SOL    HW1  772   2.733   3.912   3.400  1.0702 -0.7417  0.5735
  197SOL    HW2  773   2.782   4.057   3.458 -0.5928 -0.1201  0.4893
  198SOL     OW  774   3.207   1.930   0.943 -0.0130  0.3973  0.1478
  198SOL    HW1  775   3.209   2.028   0.962  0.9802  0.5497 -0.7180
  198SOL    HW2  776   3.282   1.885   0.992  0.6110  0.3297 -0.8651
  199SOL     OW  777   1.475   4.144   2.885  0.3240 -0.5016 -0.3342
  199SOL    HW1  778   1.457   4.086   2.805  0.4320 -1.3099  0.2096
  199SOL    HW2  779   1.566   4.184   2.876  0.4228 -0.7570 -0.5206
  200SOL     OW  780   3.669   3.997   2.134  0.3859  0.2191  0.4752
  200SOL    HW1  781   3.759   4.040   2.122  0.3644  0.3862  0.9212
  200SOL    HW2  782   3.647   3.991   2.231  0.2400 -0.5080  0.4050
  201SOL     OW  783   3.318   3.258   3.477  0.3964  0.3857 -0.2777
  201SOL    HW1  784   3.289   3.163   3.486  0.0516  0.5930  0.9920
  201SOL    HW2  785   3.410   3.261   3.437  1.5470 -0.6451  2.1197
  202SOL     OW  786   3.256   3.220   3.134 -0.3084 -0.2895 -0.5663
  202SOL    HW1  787   3.214   3.274   3.206  1.6948 -0.6522  0.9445
  202SOL    HW2  788   3.287   3.280   3.061  0.4653  0.4342  0.3475
  203SOL     OW  789   2.174   2.794   1.898 -0.0263  0.0395  0.9780
  203SOL    HW1  790   2.125   2.865   1.948  0.5322  0.1159  1.4314
  203SOL    HW2  791   2.264   2.828   1.871  0.6449 -0.7965  2.0660
  204SOL     OW  792   4.157   0.494   0.286 -0.1607 -0.3002 -0.2237
  204SOL    HW1  793   4.110   0.556   0.224 -0.0333  0.9007  0.8589
  204SOL    HW2  794   4.204   0.423   0.232 -1.6646 -0.4581 -1.3948
  205SOL     OW  795   2.253   2.619   4.074  0.1923  0.1471 -0.4820
  205SOL    HW1  796   2.315   2.545   4.046  1.2528  1.1428 -0.8507
  205SOL    HW2  797   2.220   2.666   3.993 -1.3798 -0.5997 -0.3056
  206SOL     OW  798   1.736   1.539   0.254 -0.1905  0.0421  0.1571
  206SOL    HW1  799   1.660   1.567   0.313 -0.0091  0.7330  0.0755
  206SOL    HW2  800   1.700   1.482   0.180 -1.0663  2.3363 -1.3002
  207SOL     OW  801   0.015   3.147   2.941  0.6482  0.5507 -0.5139
  207SOL    HW1  802  -0.058   3.188   2.995 -0.0973 -1.7282  0.3223
  207SOL    HW2  803   0.097   3.204   2.948 -0.1817  1.6277  0.9212
  208SOL     OW  804   3.262   2.204   0.309  0.3106 -0.5142  0.0830
  208SOL    HW1  805   3.254   2.138   0.233 -0.0529  0.5465 -0.8277
  208SOL    HW2  806   3.301   2.157   0.388  1.5398 -1.4633 -1.0231
  209SOL     OW  807   0.967   3.263   2.553 -0.3999  0.8261 -0.0896
  209SOL    HW1  808   0.900   3.337   2.562 -2.0748 -0.7487  0.9723
  209SOL    HW2  809   0.978   3.240   2.457 -1.0917  1.3651 -0.3082
  210SOL     OW  810   4.248   2.893   2.945  0.0983 -0.0999 -0.3379
  210SOL    HW1  811   4.258   2.991   2.933  2.0685 -0.3409 -0.9722
  210SOL    HW2  812   4.293   2.864   3.029  1.1858 -0.6874 -1.0987
  211SOL     OW  813   3.069   2.855   2.989  0.1938 -0.3109  0.4847
  211SOL    HW1  814   3.144   2.880   3.049 -1.0391  1.9254  1.2233
  211SOL    HW2  815   3.089   2.886   2.896 -0.0189  0.8068  0.7960
  212SOL     OW  816   2.955   2.192   2.298  0.0192  0.7358 -0.2846
  212SOL    HW1  817   2.903   2.189   2.213  0.3986  0.5162 -0.5144
  212SOL    HW2  818   3.016   2.271   2.295  0.2443  0.5607 -0.3452
  213SOL     OW  819   2.997   2.583   1.188 -0.1984 -0.7971  0.9297
  213SOL    HW1  820   2.931   2.632   1.245  1.4369  1.8045  0.7785
  213SOL    HW2  821   2.967   2.586   1.093 -1.4953 -2.6480  1.2232
  214SOL     OW  822   0.887   0.079   1.046  0.3127 -0.0532 -0.2666
  214SOL    HW1  823   0.906   0.051   0.952  2.2262  2.2718 -0.6706
  214SOL    HW2  824   0.792   0.110   1.053  0.6930  1.7746 -2.0473
  215SOL     OW  825   2.574   3.132   3.593  0.2838 -0.5712  0.3053
  215SOL    HW1  826   2.567   3.058   3.526 -0.3115 -0.1668 -0.0802
  215SOL    HW2  827   2.663   3.125   3.640  0.6005 -0.9973 -0.3472
  216SOL     OW  828   0.803   3.522   2.190  0.2182 -0.3365  0.7235
  216SOL    HW1  829   0.775   3.427   2.205  1.7078 -0.8715  0.2956
  216SOL    HW2  830   0.886   3.524   2.134  0.1159  1.2340  0.5681
  217SOL     OW  831   4.157   1.979   1.846 -0.9790 -0.4528 -0.1737
  217SOL    HW1  832   4.173   2.057   1.785  2.3786 -2.4793 -2.2333
  217SOL    HW2  833   4.092   1.916   1.803 -0.6912 -0.5956 -0.4077
  218SOL     OW  834   2.606   3.664   3.450 -0.2601  0.0518 -0.3661
  218SOL    HW1  835   2.645   3.662   3.542  2.0989 -1.0376 -1.3056
  218SOL    HW2  836   2.536   3.594   3.443 -0.9936  0.6405  0.7903
  219SOL     OW  837   0.773   0.293   3.424  0.4386  0.4348 -0.3791
  219SOL    HW1  838   0.796   0.229   3.497  0.4522  0.0345 -0.7346
  219SOL    HW2  839   0.765   0.385   3.463  1.2373  0.3544 -0.0067
  220SOL     OW  840   3.256   2.754   2.392 -0.2644  0.1027 -0.3658
  220SOL    HW1  841   3.214   2.838   2.426  0.8641  0.4417  0.2212
  220SOL    HW2  842   3.224   2.676   2.446  0.0214  0.3845  0.2106
  221SOL     OW  843   2.446   2.065   0.936 -0.5004  0.2824  0.9245
  221SOL    HW1  844   2.425   2.113   1.021 -1.3151  2.5443 -0.4819
  221SOL    HW2  845   2.524   2.109   0.892 -2.6123  1.8682 -1.4759
  222SOL     OW  846   0.473   4.005   3.890  0.2065 -0.1914  0.1635
  222SOL    HW1  847   0.445   4.020   3.796 -1.7935 -2.4528  0.3209
  222SOL    HW2  848   0.468   4.092   3.940 -1.3924  0.5191 -1.1666
  223SOL     OW  849   2.964   2.604   3.079  0.2053  0.2609 -0.3524
  223SOL    HW1  850   2.999   2.673   3.016 -3.0454 -0.3708 -3.1575
  223SOL    HW2  851   2.962   2.515   3.032  0.4716 -0.9303  1.7639
  224SOL     OW  852   0.930   3.449   3.628 -0.6113 -0.8233 -0.3186
  224SOL    HW1  853   0.878   3.399   3.697 -1.5296 -1.6155 -1.5516
  224SOL    HW2  854   0.873   3.524   3.593 -0.1996 -0.5137 -0.3314
  225SOL     OW  855   0.686   3.812   3.116 -0.7304 -0.6891  0.1491
  225SOL    HW1  856   0.766   3.756   3.137 -1.3758 -1.6111  0.2068
  225SOL    HW2  857   0.711   3.881   3.048 -0.1851 -1.7754 -0.7961
  226SOL     OW  858   1.896   1.964   3.086  0.8293  0.3801  0.8155
  226SOL    HW1  859   1.847   1.944   3.001  2.9875 -1.5467 -0.0892
  226SOL    HW2  860   1.985   2.003   3.065  0.6430  1.7785  2.3346
  227SOL     OW  861   2.381   1.754   3.009 -0.0129  0.3377  0.0226
  227SOL    HW1  862   2.408   1.765   2.913  1.5687  2.5469  0.6424
  227SOL    HW2  863   2.450   1.699   3.056  0.2002  0.8254  0.2854
  228SOL     OW  864   3.796   2.920   0.920  0.0509  0.4081  0.1904
  228SOL    HW1  865   3.771   2.837   0.870  2.6488 -0.3332 -0.0333
  228SOL    HW2  866   3.847   2.895   1.002 -1.6913  1.7343  1.7699
  229SOL     OW  867   2.254   0.260   3.574  0.5624 -0.6961 -0.0357
  229SOL    HW1  868   2.345   0.219   3.562  0.7761 -0.3521  0.3789
  229SOL    HW2  869   2.250   0.306   3.663  0.3991  0.3658 -0.5696
  230SOL     OW  870   0.452   4.254   3.972 -0.4127 -0.9370 -0.3296
  230SOL    HW1  871   0.385   4.296   3.911  0.4511  0.8477 -0.1180
  230SOL    HW2  872   0.430   4.278   4.067  0.6156 -0.1119 -0.2754
  231SOL     OW  873   2.861   3.131   3.934  0.4904  0.5186 -0.5271
  231SOL    HW1  874   2.846   3.114   3.837 -0.2026 -2.7884  0.0210
  231SOL    HW2  875   2.773   3.129   3.981  1.0012 -0.6874  0.4509
  232SOL     OW  876   3.352   0.877   0.298 -0.1416 -0.4272  0.5811
  232SOL    HW1  877   3.450   0.891   0.284 -0.4871  0.4550 -1.2233
  232SOL    HW2  878   3.336   0.779   0.313  0.8822 -0.8167 -0.6164
  233SOL     OW  879   2.913   0.681   0.298  0.2868  0.2397  0.5783
  233SOL    HW1  880   2.948   0.774   0.308  0.1389  0.3168  0.3863
  233SOL    HW2  881   2.955   0.638   0.218 -0.4852  0.5393 -0.0092
  234SOL     OW  882   4.159   2.452   1.793 -0.1840  0.5946 -0.2445
  234SOL    HW1  883   4.074   2.493   1.759 -0.2228  0.6540 -0.0780
  234SOL    HW2  884   4.167   2.470   1.891  0.0666  0.6726 -0.2768
  235SOL     OW  885   2.654   0.233   3.323 -0.0990 -0.4409  0.2633
  235SOL    HW1  886   2.627   0.320   3.280  0.1025 -0.5693 -0.1312
  235SOL    HW2  887   2.649   0.160   3.255  0.0661 -0.6782  0.5037
  236SOL     OW  888   0.261   3.014   2.866  0.6694 -0.5851 -0.3843
  236SOL    HW1  889   0.240   3.085   2.799  1.9563  0.6319  0.4265
  236SOL    HW2  890   0.177   2.967   2.892 -0.4586  1.5207  0.0103
  237SOL     OW  891   0.874   3.539   1.675 -0.2709 -0.0154  0.6617
  237SOL    HW1  892   0.887   3.464   1.740 -0.7511  2.0905  3.4070
  237SOL    HW2  893   0.785   3.528   1.630  0.4804 -2.0196 -0.4170
  238SOL     OW  894   2.288   1.480   2.697  0.8205  0.1557  0.1222
  238SOL    HW1  895   2.337   1.464   2.783  0.1266 -1.9141  0.1891
  238SOL    HW2  896   2.283   1.578   2.681  2.0308  0.5606  1.8142
  239SOL     OW  897   0.539   2.482   2.765 -0.3682  0.6725 -0.0029
  239SOL    HW1  898   0.442   2.457   2.767 -0.7289  2.0378  0.7312
  239SOL    HW2  899   0.558   2.544   2.841  1.1553  0.2125  0.0160
  240SOL     OW  900   0.433   2.389   3.010  0.4583 -0.1031 -0.2236
  240SOL    HW1  901   0.513   2.396   2.949  2.0936 -0.1875  1.8049
  240SOL    HW2  902   0.394   2.298   3.002  1.3357 -0.4808 -0.3608
  241SOL     OW  903   0.623   3.777   2.342 -0.0001 -0.2356  0.0884
  241SOL    HW1  904   0.609   3.716   2.264 -0.6488  0.0003  0.0118
  241SOL    HW2  905   0.682   3.853   2.315 -0.5349  0.0483 -0.2826
  242SOL     OW  906   2.286   2.731   1.094  0.2370 -0.0894  0.2489
  242SOL    HW1  907   2.332   2.811   1.133 -2.7815  2.6236 -1.1811
  242SOL    HW2  908   2.342   2.692   1.022  1.3352  1.4978  0.2042
  243SOL     OW  909   1.241   3.693   2.648 -0.4215 -0.3075 -0.4633
  243SOL    HW1  910   1.275   3.634   2.721 -2.1896  0.0226  0.7076
  243SOL    HW2  911   1.152   3.659   2.618 -0.1329  0.0944 -1.8430
  244SOL     OW  912   2.628   2.608   0.618  0.0601  0.6008 -0.4080
  244SOL    HW1  913   2.599   2.683   0.558 -1.9345  0.4379  0.2498
  244SOL    HW2  914   2.576   2.525   0.594  2.0100 -0.5387 -0.9279
  245SOL     OW  915   3.206   3.523   3.912 -0.4548  0.2304 -0.2191
  245SOL    HW1  916   3.142   3.599   3.898 -0.1515  0.3491 -1.0891
  245SOL    HW2  917   3.226   3.482   3.823  0.5134  0.0666  0.0642
  246SOL     OW  918   1.643   2.807   3.326  0.0113  0.2513  0.1357
  246SOL    HW1  919   1.688   2.795   3.237 -2.0428 -0.2661 -0.8795
  246SOL    HW2  920   1.623   2.904   3.340  2.3355  0.6609  1.1151
  247SOL     OW  921   2.260   3.775   3.147 -0.0626  0.2884 -0.2740
  247SOL    HW1  922   2.312   3.725   3.077 -0.1778  1.2210 -1.0589
  247SOL    HW2  923   2.198   3.838   3.101  0.6802  1.7608  0.6729
  248SOL     OW  924   2.242   3.170   2.024 -0.5000  0.2558 -0.4610
  248SOL    HW1  925   2.276   3.181   1.931 -1.6013 -1.1805 -1.0713
  248SOL    HW2  926   2.181   3.091   2.028 -0.7693  0.5027  1.4091
  249SOL     OW  927   0.924   0.266   3.992  0.0110  0.1818 -0.4700
  249SOL    HW1  928   0.845   0.204   3.996 -0.0469  0.2233 -0.8714
  249SOL    HW2  929   0.895   0.357   4.021 -0.1263  0.2306 -0.7539
  250SOL     OW  930   1.123   2.255   1.146  0.1177  0.0399 -0.5232
  250SOL    HW1  931   1.127   2.304   1.059 -1.9335  0.4164 -0.4429
  250SOL    HW2  932   1.064   2.305   1.209  0.2259 -1.1025  0.5110
  251SOL     OW  933   1.069   3.981   3.838 -0.1495 -0.6174  0.0194
  251SOL    HW1  934   1.084   4.031   3.753 -0.0998 -0.5550  0.0657
  251SOL    HW2  935   0.978   4.005   3.874 -0.3881 -1.0368 -0.2881
  252SOL     OW  936   1.074   3.945   2.229  0.8112  0.4656  0.0016
  252SOL    HW1  937   1.028   4.014   2.285 -0.1548  0.9137 -1.2913
  252SOL    HW2  938   1.087   3.862   2.284 -0.3309  0.7965  0.8151
  253SOL     OW  939   3.394   3.974   2.177  0.0354  0.0974  0.1408
  253SOL    HW1  940   3.479   4.002   2.132  0.4965  1.1160  1.5861
  253SOL    HW2  941   3.381   3.876   2.167  1.5621 -0.1201  0.2024
  254SOL     OW  942   0.029   1.787   1.357  0.4623 -0.0211 -0.0452
  254SOL    HW1  943   0.122   1.798   1.394  0.5281 -1.1030  0.1469
  254SOL    HW2  944  -0.018   1.716   1.409 -0.2666  0.1000 -0.5386
  255SOL     OW  945   3.702   2.721   0.551  0.4127  0.2724 -0.2189
  255SOL    HW1  946   3.753   2.656   0.494 -0.1855  0.7072 -1.2501
  255SOL    HW2  947   3.740   2.812   0.540  2.1792 -0.0338  2.2975
  256SOL     OW  948   0.143   2.327   1.955 -0.7047  0.2025  0.2123
  256SOL    HW1  949   0.087   2.393   2.005 -0.9914 -0.2314  0.4655
  256SOL    HW2  950   0.184   2.373   1.876 -0.6720  0.7564  0.5454
  257SOL     OW  951   1.955   3.610   0.517  0.1622 -0.2970 -0.5272
  257SOL    HW1  952   1.872   3.593   0.463 -0.9552  0.6534  0.8081
  257SOL    HW2  953   1.931   3.666   0.596  1.7732 -1.5009  0.8783
  258SOL     OW  954   3.275   2.659   1.268 -0.2740 -0.3334 -0.2994
  258SOL    HW1  955   3.319   2.579   1.308 -0.4331  0.3186  1.2512
  258SOL    HW2  956   3.194   2.629   1.218  0.9449 -1.3600 -1.7525
  259SOL     OW  957   0.071   2.705   2.752 -0.0320  0.3060  0.1562
  259SOL    HW1  958   0.031   2.785   2.797 -0.8194  0.0569 -0.0827
  259SOL    HW2  959   0.100   2.640   2.822  1.4023  1.1557  0.3837
  260SOL     OW  960   3.879   0.105   2.863  0.0956  0.1004  0.3712
  260SOL    HW1  961   3.813   0.144   2.799  0.3184  0.6537  0.4740
  260SOL    HW2  962   3.928   0.179   2.909 -1.0680 -0.2281  2.2478
  261SOL     OW  963   2.096   1.230   0.265  0.8389 -0.3276 -0.7009
  261SOL    HW1  964   2.177   1.223   0.323  0.1315  0.3068  0.3861
  261SOL    HW2  965   2.042   1.147   0.274  1.3930 -0.7839 -1.4861
  262SOL     OW  966   1.039   2.274   2.297 -0.1438 -0.4074 -0.3945
  262SOL    HW1  967   1.087   2.340   2.240  0.8143 -1.7889 -1.2296
  262SOL    HW2  968   1.030   2.312   2.390  0.3586  0.8861 -0.8464
  263SOL     OW  969   2.104   4.093   3.467 -0.4673  0.5483  0.1573
  263SOL    HW1  970   2.023   4.053   3.424 -0.2006  0.6694 -0.4589
  263SOL    HW2  971   2.084   4.111   3.563 -0.9326 -0.1024  0.1893
  264SOL     OW  972   2.846   3.845   3.710  0.0073 -0.0624 -0.1815
  264SOL    HW1  973   2.779   3.775   3.736  0.1898 -0.3032 -0.3586
  264SOL    HW2  974   2.806   3.902   3.638 -0.0885 -0.0688 -0.1345
  265SOL     OW  975   1.681   3.723   2.168  0.3994  0.6706  0.0336
  265SOL    HW1  976   1.696   3.655   2.241  0.3530 -1.0970 -1.5288
  265SOL    HW2  977   1.594   3.770   2.185  0.5828  0.5877  1.3270
  266SOL     OW  978   0.670   3.685   1.803 -0.3166 -0.0144  0.1671
  266SOL    HW1  979   0.638   3.772   1.765 -2.0940 -0.2064  1.1027
  266SOL    HW2  980   0.735   3.643   1.740  0.9045  2.1691 -0.1019
  267SOL     OW  981   2.559   4.078   3.283  0.5512  0.3072  0.4825
  267SOL    HW1  982   2.459   4.080   3.286  0.5581 -0.5596  1.3505
  267SOL    HW2  983   2.592   4.170   3.259 -0.4472  0.5803  0.0929
  268SOL     OW  984   1.759   2.656   0.849 -0.3652  0.1630  0.6617
  268SOL    HW1  985   1.823   2.581   0.866  0.0800  0.2090 -0.6692
  268SOL    HW2  986   1.727   2.651   0.754 -0.8356  1.2780  0.7437
  269SOL     OW  987   4.088   3.840   2.063  0.1397  0.3531 -0.6270
  269SOL    HW1  988   4.033   3.917   2.096  0.4028 -0.1487  1.0897
  269SOL    HW2  989   4.138   3.867   1.981  0.0543  1.9295 -0.1799
  270SOL     OW  990   0.857   3.295   1.833  0.3969  0.1888  0.4507
  270SOL    HW1  991   0.822   3.233   1.764 -0.9268  0.2562  1.0239
  270SOL    HW2  992   0.901   3.243   1.906  1.0624  0.0694 -0.0275
  271SOL     OW  993   0.644   3.911   3.391 -0.4372  0.1814 -0.3004
  271SOL    HW1  994   0.546   3.918   3.372 -0.2046 -0.9280 -2.1701
  271SOL    HW2  995   0.685   3.845   3.329  1.2449 -0.5968  1.5132
  272SOL     OW  996   1.765   3.636   0.056  0.2945  0.5423 -0.2938
  272SOL    HW1  997   1.818   3.712   0.018  1.7836 -0.0738  0.4302
  272SOL    HW2  998   1.677   3.630   0.010  0.6566  1.9269 -1.2191
  273SOL     OW  999   3.413   2.606   0.962  0.0913 -0.0545  1.1419
  273SOL    HW1 1000   3.397   2.661   1.044 -0.6376 -1.2200  1.8106
  273SOL    HW2 1001   3.330   2.608   0.906 -0.1762 -0.9625  1.4858
  274SOL     OW 1002   1.432   1.633   3.487  0.1988 -0.1149  0.0842
  274SOL    HW1 1003   1.368   1.708   3.468  1.0414  0.1101 -2.1493
  274SOL    HW2 1004   1.396   1.577   3.562 -2.0309  0.6618 -0.3429
  275SOL     OW 1005   4.027   0.631   0.096  0.3353  0.2134 -0.4151
  275SOL    HW1 1006   4.080   0.677   0.026  0.7287 -0.5897 -0.6549
  275SOL    HW2 1007   3.930   0.648   0.080  0.5273  2.5096  0.6081
  276SOL     OW 1008   3.983   1.848   1.670  0.3351 -0.6694  0.0689
  276SOL    HW1 1009   3.944   1.909   1.601  1.5153 -0.9528 -0.8929
  276SOL    HW2 1010   3.910   1.793   1.711 -0.6219  0.7180  0.3078
  277SOL     OW 1011   0.873   4.098   4.011  0.2954  0.0479  0.3489
  277SOL    HW1 1012   0.929   4.130   4.088  1.2474  2.1452 -1.1218
  277SOL    HW2 1013   0.796   4.160   3.998  0.2810 -0.1477 -0.5479
  278SOL     OW 1014   1.441   2.292   3.204 -0.4377 -0.8330  0.0934
  278SOL    HW1 1015   1.436   2.378   3.154 -0.0406 -1.1304 -0.4693
  278SOL    HW2 1016   1.490   2.225   3.149  0.7444 -0.9280  1.1992
  279SOL     OW 1017   1.366   3.586   1.919 -0.5936  0.0960 -0.1733
  279SOL    HW1 1018   1.266   3.592   1.914 -0.9020 -2.8506  0.7195
  279SOL    HW2 1019   1.393   3.580   2.015  0.6214  2.1904 -0.3283
  280SOL     OW 1020   0.237   3.017   2.258 -0.1591 -0.0329 -0.1886
  280SOL    HW1 1021   0.201   2.927   2.236  0.2736 -0.7466  1.7806
  280SOL    HW2 1022   0.306   3.008   2.330 -0.1016  1.8698  0.0475
  281SOL     OW 1023   0.425   0.125   0.410  0.6217 -0.3719  0.7332
  281SOL    HW1 1024   0.404   0.157   0.503  0.3892 -0.9701  0.8922
  281SOL    HW2 1025   0.523   0.128   0.396  0.5596  1.1677  0.4586
  282SOL     OW 1026   3.491   2.168   1.073  0.2152  0.2400  0.1443
  282SOL    HW1 1027   3.510   2.260   1.106 -3.0950  0.5519  1.5977
  282SOL    HW2 1028   3.415   2.171   1.009  0.0498 -1.4642  0.2157
  283SOL     OW 1029   1.475   3.261   2.575 -0.1334  0.1190 -0.3835
  283SOL    HW1 1030   1.453   3.336   2.637 -1.6497 -1.1988  0.7627
  283SOL    HW2 1031   1.535   3.196   2.622 -1.1461 -0.7957 -0.3151
  284SOL     OW 1032   1.659   2.198   0.439  0.1586 -0.6070  0.2529
  284SOL    HW1 1033   1.592   2.158   0.501 -1.0683 -0.6497 -1.0601
  284SOL    HW2 1034   1.751   2.179   0.474 -0.4718 -1.4423  1.5417
  285SOL     OW 1035   3.258   2.999   2.546  0.7573 -0.2608  0.3002
  285SOL    HW1 1036   3.229   3.091   2.521 -1.1539 -0.2423  2.3029
  285SOL    HW2 1037   3.333   3.005   2.612  2.0042 -0.2485 -1.0386
  286SOL     OW 1038   0.704   3.549   0.216 -0.1365  0.3557  0.1243
  286SOL    HW1 1039   0.658   3.538   0.128 -1.5615  1.5166  0.6672
  286SOL    HW2 1040   0.676   3.636   0.257  2.3730  0.9881  0.6519
  287SOL     OW 1041   3.456   1.527   0.477 -0.3988 -0.3075 -0.5484
  287SOL    HW1 1042   3.509   1.552   0.559 -1.8886  0.0491  0.3354
  287SOL    HW2 1043   3.454   1.606   0.415  0.2126 -0.3744 -0.6639
  288SOL     OW 1044   2.288   0.283   4.105 -0.1627 -0.1040  0.2358
  288SOL    HW1 1045   2.305   0.348   4.179 -1.5041  0.4942  0.0514
  288SOL    HW2 1046   2.233   0.208   4.140  0.4075 -0.5594  0.1701
  289SOL     OW 1047   2.182   3.579   3.344 -0.3208 -0.0093  0.2702
  289SOL    HW1 1048   2.169   3.512   3.271 -0.7543  2.3251 -1.9352
  289SOL    HW2 1049   2.131   3.662   3.321  1.0248  1.4842  2.3726
  290SOL     OW 1050   0.930   3.123   2.047 -0.0687 -0.6360 -0.0345
  290SOL    HW1 1051   1.025   3.101   2.023  1.3483  3.8604  0.4401
  290SOL    HW2 1052   0.923   3.133   2.147 -0.4910  0.8405 -0.1866
  291SOL     OW 1053   3.215   3.767   0.123  0.2216 -0.5080  0.3315
  291SOL    HW1 1054   3.251   3.713   0.047  0.2451  0.0279 -0.0450
  291SOL    HW2 1055   3.120   3.741   0.139 -0.2614  0.4102 -0.8742
  292SOL     OW 1056   0.979   2.411   2.585 -0.0758 -0.0138 -0.3104
  292SOL    HW1 1057   0.993   2.317   2.616 -0.2908  0.2420  0.5817
  292SOL    HW2 1058   1.018   2.473   2.652  1.1377  0.5180 -1.4684
  293SOL     OW 1059   3.126   3.111   1.041 -0.0390  0.3314 -0.0507
  293SOL    HW1 1060   3.178   3.180   0.989  1.4594 -0.8845 -0.2426
  293SOL    HW2 1061   3.116   3.143   1.136 -0.3008  1.2900 -0.3899
  294SOL     OW 1062   1.145   3.099   1.073 -0.2594  0.0581  1.0695
  294SOL    HW1 1063   1.155   3.001   1.085 -2.8560 -0.3781  0.2575
  294SOL    HW2 1064   1.082   3.135   1.142 -1.5161  0.6068 -0.3010
  295SOL     OW 1065   2.067   3.936   0.447 -0.0742  0.5507 -0.1319
  295SOL    HW1 1066   2.087   3.841   0.424  0.3769  0.3794  0.9460
  295SOL    HW2 1067   2.152   3.985   0.462 -0.3207  0.2786  2.6107
  296SOL     OW 1068   1.494   3.546   0.574  0.0522 -0.2059  0.0567
  296SOL    HW1 1069   1.438   3.464   0.565 -2.0880  1.2214 -0.2339
  296SOL    HW2 1070   1.554   3.553   0.495 -2.3414  0.3368 -1.8285
  297SOL     OW 1071   1.915   2.162   0.552 -1.0129 -0.1064 -0.3340
  297SOL    HW1 1072   1.971   2.146   0.633 -0.7817  1.9552 -0.0299
  297SOL    HW2 1073   1.942   2.098   0.480 -0.0529 -0.8477  0.6561
  298SOL     OW 1074   0.999   3.845   1.970 -0.2388  0.0248  0.2277
  298SOL    HW1 1075   0.903   3.820   1.976  0.2656 -2.0892  0.0891
  298SOL    HW2 1076   1.026   3.889   2.056 -1.3995  1.0482  0.1027
  299SOL     OW 1077   0.221   3.834   1.114 -0.8775  0.2086 -0.0181
  299SOL    HW1 1078   0.191   3.861   1.022  1.0524  1.0081 -0.4550
  299SOL    HW2 1079   0.142   3.799   1.165 -1.9065 -0.7332 -2.1288
  300SOL     OW 1080   2.205   2.000   2.990 -0.0226  0.4750 -0.2098
  300SOL    HW1 1081   2.252   1.919   3.027 -1.5578 -0.4610 -0.2353
  300SOL    HW2 1082   2.184   1.984   2.894 -2.4403 -0.1338  0.3671
  301SOL     OW 1083   2.782   2.794   3.672 -0.4710  0.0536  0.5889
  301SOL    HW1 1084   2.701   2.737   3.682 -1.7909  2.0561  2.1076
  301SOL    HW2 1085   2.826   2.805   3.762 -0.0559  1.1176  0.2774
  302SOL     OW 1086   3.407   3.010   2.822  0.0455  0.1694  0.0585
  302SOL    HW1 1087   3.474   2.940   2.796  1.1625  0.4663  1.9636
  302SOL    HW2 1088   3.390   3.005   2.921 -1.7297  1.0153 -0.1527
  303SOL     OW 1089   3.021   1.738   0.932 -0.5523  0.3483 -0.1672
  303SOL    HW1 1090   3.062   1.829   0.931  0.0541  0.0826 -0.9956
  303SOL    HW2 1091   2.983   1.720   1.023  1.6410  0.4060  0.8195
  304SOL     OW 1092   0.652   3.138   2.639  0.7004  0.2681 -0.1690
  304SOL    HW1 1093   0.679   3.137   2.543 -0.1629 -0.8488 -0.4220
  304SOL    HW2 1094   0.725   3.098   2.694  0.4506 -0.8133 -0.5974
  305SOL     OW 1095   2.249   2.473   3.484 -0.0222 -0.1345  0.5153
  305SOL    HW1 1096   2.163   2.517   3.509 -0.4514 -1.0033  0.6151
  305SOL    HW2 1097   2.268   2.491   3.387  0.1828  0.8594  0.7343
  306SOL     OW 1098   1.739   2.870   1.901 -0.1292  0.0415 -0.3553
  306SOL    HW1 1099   1.648   2.828   1.907 -0.1914 -0.0057 -1.3188
  306SOL    HW2 1100   1.804   2.815   1.953 -0.7593  0.4307  0.8832
  307SOL     OW 1101   2.372   3.608   3.781 -0.0267  0.1321  0.0709
  307SOL    HW1 1102   2.320   3.597   3.866  1.7035  0.4027  1.2311
  307SOL    HW2 1103   2.344   3.692   3.736 -1.3595 -0.2916  0.0595
  308SOL     OW 1104   0.391   3.174   2.577  0.7118  0.0049  0.2500
  308SOL    HW1 1105   0.471   3.186   2.637 -0.2764  1.6101  1.3237
  308SOL    HW2 1106   0.365   3.263   2.539  0.1119 -0.6864 -0.9985
  309SOL     OW 1107   4.247   1.948   0.669  0.5050  0.1455  0.3884
  309SOL    HW1 1108   4.182   1.873   0.677  0.7743  0.0391  1.7766
  309SOL    HW2 1109   4.338   1.915   0.696  1.0674  0.4176 -1.0681
  310SOL     OW 1110   2.141   2.745   3.877 -0.0441  0.1210  0.0406
  310SOL    HW1 1111   2.161   2.826   3.822 -0.2511  1.5880  2.0055
  310SOL    HW2 1112   2.042   2.735   3.886 -0.0147  0.2719  0.6216
  311SOL     OW 1113   2.855   2.419   3.238 -0.1704 -0.6354 -0.1188
  311SOL    HW1 1114   2.937   2.394   3.290  0.2962 -0.1370 -0.6047
  311SOL    HW2 1115   2.879   2.490   3.172 -0.7259 -1.3677 -1.1211
  312SOL     OW 1116   0.969   2.865   2.435  0.7280  0.0803 -0.1709
  312SOL    HW1 1117   0.903   2.798   2.470 -0.6790  1.5333  0.0802
  312SOL    HW2 1118   0.996   2.840   2.343  0.6904 -1.1381  0.1314
  313SOL     OW 1119   1.800   4.226   0.624  0.4119 -0.6320 -0.2624
  313SOL    HW1 1120   1.703   4.237   0.644  0.2161 -3.2408  0.6199
  313SOL    HW2 1121   1.833   4.307   0.576 -2.3821 -0.0531 -1.3954
  314SOL     OW 1122   3.590   2.828   2.033 -0.2032 -0.3051  0.6550
  314SOL    HW1 1123   3.530   2.749   2.020 -2.7146  1.7750 -1.8454
  314SOL    HW2 1124   3.555   2.883   2.109 -0.2912 -0.1172  0.4811
  315SOL     OW 1125   3.636   0.280   2.189  0.2705  0.4026  0.1252
  315SOL    HW1 1126   3.676   0.218   2.256 -1.2060 -2.0834 -1.1156
  315SOL    HW2 1127   3.669   0.255   2.098 -0.5893  1.2670 -0.4415
  316SOL     OW 1128   0.665   3.275   2.171 -0.5462 -0.0115  0.0286
  316SOL    HW1 1129   0.664   3.204   2.241 -0.3983 -0.2340 -0.1955
  316SOL    HW2 1130   0.641   3.235   2.083 -1.4566  0.3962  0.0692
  317SOL     OW 1131   1.497   2.636   1.279 -0.1794  0.3329  0.4390
  317SOL    HW1 1132   1.521   2.653   1.183  0.2206  0.1648  0.5052
  317SOL    HW2 1133   1.398   2.643   1.290 -0.1799  0.9051  0.1246
  318SOL     OW 1134   3.964   3.923   2.519  0.6025  0.3692  0.1687
  318SOL    HW1 1135   3.932   4.017   2.505  0.2323  0.3102  0.5967
  318SOL    HW2 1136   3.956   3.899   2.615 -1.9116 -1.0019 -0.2694
  319SOL     OW 1137   0.043   3.926   1.486 -0.1209  0.1848  1.1675
  319SOL    HW1 1138   0.125   3.980   1.506  1.1599 -1.6018  0.9371
  319SOL    HW2 1139  -0.023   3.938   1.560  1.2098  0.0319  2.4324
  320SOL     OW 1140   1.886   3.068   3.481 -0.8187  0.2334  0.1680
  320SOL    HW1 1141   1.887   3.132   3.404 -1.2554  1.0686  0.8380
  320SOL    HW2 1142   1.895   2.974   3.446  1.1226  0.6999 -0.7723
  321SOL     OW 1143   3.887   2.376   1.164 -0.0870 -0.0100 -0.0778
  321SOL    HW1 1144   3.840   2.306   1.111  0.2162  0.2296 -0.6753
  321SOL    HW2 1145   3.950   2.426   1.104  1.4774 -0.8008  0.8436
  322SOL     OW 1146   3.274   2.207   0.940  0.0657  0.4230 -0.1816
  322SOL    HW1 1147   3.177   2.211   0.962 -0.2719  0.0337 -1.5054
  322SOL    HW2 1148   3.287   2.222   0.842  1.1635 -1.3547 -0.3665
  323SOL     OW 1149   1.321   3.783   1.694  0.5050 -0.0779 -0.3741
  323SOL    HW1 1150   1.245   3.741   1.743  1.0100 -1.2242 -0.5338
  323SOL    HW2 1151   1.304   3.776   1.596  0.5555  0.1690 -0.4002
  324SOL     OW 1152   4.107   3.721   1.756  0.0760  0.2784  0.1618
  324SOL    HW1 1153   4.146   3.639   1.714  0.5424  0.9184 -0.6883
  324SOL    HW2 1154   4.043   3.694   1.828 -0.2271 -0.8374 -0.5036
  325SOL     OW 1155   1.547   2.145   2.280 -0.2317  0.1852  0.0541
  325SOL    HW1 1156   1.610   2.086   2.331  0.1000  0.9214  0.5153
  325SOL    HW2 1157   1.495   2.089   2.215 -1.3755 -0.9735  1.8544
  326SOL     OW 1158   1.089   3.748   2.948  0.1721 -0.3633  0.2883
  326SOL    HW1 1159   1.129   3.791   2.867  1.2788 -1.6895  0.0704
  326SOL    HW2 1160   1.082   3.815   3.021  0.6433  0.4827 -0.4242
  327SOL     OW 1161   2.579   3.434   3.235 -0.0214  0.0259  0.2854
  327SOL    HW1 1162   2.538   3.475   3.317 -0.6814  0.3595 -0.2057
  327SOL    HW2 1163   2.677   3.455   3.233 -0.2032  0.9052  0.4529
  328SOL     OW 1164   0.195   2.754   3.642  0.3253  0.4334  0.1102
  328SOL    HW1 1165   0.101   2.780   3.664  0.3227 -0.0295  0.6890
  328SOL    HW2 1166   0.254   2.781   3.718  1.0415  2.7520 -1.1806
  329SOL     OW 1167   1.142   2.479   2.007 -0.4241  0.6195 -0.2738
  329SOL    HW1 1168   1.241   2.480   1.992 -0.3027 -0.2757  0.4110
  329SOL    HW2 1169   1.118   2.548   2.075 -0.0713 -0.1574  0.6581
  330SOL     OW 1170   1.225   0.973   3.257  0.1675 -0.1278 -0.2009
  330SOL    HW1 1171   1.138   0.986   3.211  0.0775  1.2827  0.3115
  330SOL    HW2 1172   1.257   1.062   3.292  2.4279 -0.3607 -1.4914
  331SOL     OW 1173   2.079   2.441   3.877 -0.3693  0.8105 -0.2296
  331SOL    HW1 1174   2.046   2.514   3.935 -0.2666  0.6421  0.0417
  331SOL    HW2 1175   2.040   2.354   3.908 -2.0950  0.9826 -1.7618
  332SOL     OW 1176   2.039   3.554   0.109 -0.1222 -0.3313 -0.0706
  332SOL    HW1 1177   2.055   3.498   0.190 -1.6540 -1.8766 -0.7653
  332SOL    HW2 1178   1.941   3.559   0.091  0.1949 -0.4524 -2.0965
  333SOL     OW 1179   0.642   3.124   3.738 -0.4976  0.5256  0.4587
  333SOL    HW1 1180   0.707   3.179   3.685  0.5143  0.3268  1.4524
  333SOL    HW2 1181   0.617   3.174   3.821 -2.2960  0.9613 -0.3061
  334SOL     OW 1182   2.111   2.922   3.659  0.1917 -0.2438 -0.0698
  334SOL    HW1 1183   2.070   2.865   3.588  2.7577 -0.9563 -1.1057
  334SOL    HW2 1184   2.048   2.997   3.682 -1.1138 -0.5186 -2.4397
  335SOL     OW 1185   1.613   2.731   1.542 -0.1084 -0.1915 -0.6462
  335SOL    HW1 1186   1.701   2.779   1.537 -0.9128  1.6071  1.2763
  335SOL    HW2 1187   1.583   2.708   1.449  1.7492  0.3155 -1.4163
  336SOL     OW 1188   0.129   2.016   2.312  0.0007 -0.3122  0.2968
  336SOL    HW1 1189   0.078   2.024   2.398 -0.0216 -0.9572  0.3503
  336SOL    HW2 1190   0.192   2.093   2.304  1.2413 -1.1103  1.7261
  337SOL     OW 1191   0.259   2.401   2.653 -0.0022 -0.0290 -0.5258
  337SOL    HW1 1192   0.310   2.334   2.600 -0.4973 -0.0929 -0.9259
  337SOL    HW2 1193   0.231   2.477   2.594  0.9777  0.7834  0.0247
  338SOL     OW 1194   1.051   0.093   1.284  0.0380 -0.0948 -0.1705
  338SOL    HW1 1195   1.024   0.114   1.190 -1.1632  0.2546  0.2430
  338SOL    HW2 1196   0.993   0.021   1.320  0.4700 -0.2051  0.3270
  339SOL     OW 1197   4.099   3.325   3.065  0.2251 -0.6296 -0.2416
  339SOL    HW1 1198   4.063   3.258   3.129 -0.0570  0.1032  0.3742
  339SOL    HW2 1199   4.103   3.414   3.109  0.3014 -0.1720 -1.1494
  340SOL     OW 1200   4.086   0.879   2.474 -0.0802 -0.0169 -0.3258
  340SOL    HW1 1201   4.013   0.856   2.410  0.7358  0.8707 -1.6281
  340SOL    HW2 1202   4.059   0.959   2.528 -0.1922  0.1348 -0.6057
  341SOL     OW 1203   0.967   1.404   2.062  0.3596  0.5305 -0.1082
  341SOL    HW1 1204   0.900   1.340   2.100 -2.0013  2.5329 -0.6131
  341SOL    HW2 1205   0.980   1.384   1.965 -1.4226  1.5550 -0.6024
  342SOL     OW 1206   2.197   3.610   0.398  0.6367  0.3990  0.2824
  342SOL    HW1 1207   2.200   3.517   0.361 -0.3461  0.4122  0.1543
  342SOL    HW2 1208   2.109   3.626   0.441  0.9618  1.1284  0.7012
  343SOL     OW 1209   4.129   1.290   1.643 -0.4536 -0.5679  0.1810
  343SOL    HW1 1210   4.166   1.214   1.697  1.7625  0.2490 -0.0919
  343SOL    HW2 1211   4.139   1.270   1.546  0.1829  0.0570  0.1056
  344SOL     OW 1212   0.803   3.322   1.045  0.1759 -0.2591 -0.1577
  344SOL    HW1 1213   0.857   3.327   1.129 -0.8518 -1.3964  0.6069
  344SOL    HW2 1214   0.857   3.277   0.974  0.6427 -0.3450  0.2481
  345SOL     OW 1215   2.453   1.749   2.743  0.5997 -0.1093  0.1579
  345SOL    HW1 1216   2.388   1.789   2.679  0.5594 -0.4334 -0.0084
  345SOL    HW2 1217   2.501   1.673   2.698  0.9477 -0.0010  0.3429
  346SOL     OW 1218   2.452   1.712   0.279  0.1074  0.0758 -0.0744
  346SOL    HW1 1219   2.527   1.699   0.343  1.0851 -0.0422 -1.2232
  346SOL    HW2 1220   2.403   1.626   0.267 -0.3465  0.1966  0.8154
  347SOL     OW 1221   3.082   2.381   2.942 -0.2164 -0.4473  0.0636
  347SOL    HW1 1222   3.083   2.330   3.029 -0.5725 -2.4763 -1.0470
  347SOL    HW2 1223   3.135   2.329   2.874 -1.2421  0.3000 -1.3433
  348SOL     OW 1224   2.908   4.108   0.746 -0.1527  0.1363  0.1097
  348SOL    HW1 1225   2.809   4.125   0.753 -0.0175  1.0187  0.0359
  348SOL    HW2 1226   2.928   4.016   0.778 -0.9432  0.1242  0.5929
  349SOL     OW 1227   3.004   2.980   0.825 -0.1898  0.2974 -0.0726
  349SOL    HW1 1228   3.068   2.954   0.752  1.1985  1.9537  0.4810
  349SOL    HW2 1229   3.055   3.023   0.900 -1.5175 -1.6888  2.1042
  350SOL     OW 1230   0.186   0.483   2.633  0.2884  0.1860  0.3874
  350SOL    HW1 1231   0.274   0.528   2.616  0.2913  0.3229  0.7492
  350SOL    HW2 1232   0.155   0.506   2.725 -0.6537  1.0186 -0.1160
  351SOL     OW 1233   3.655   3.282   2.072 -0.0634 -0.0712  0.0965
  351SOL    HW1 1234   3.587   3.272   2.000  0.7674  2.2236 -1.0986
  351SOL    HW2 1235   3.741   3.241   2.042  0.0082 -0.0179  0.2252
  352SOL     OW 1236   2.910   2.934   0.517  0.1263 -0.2131  0.0895
  352SOL    HW1 1237   2.906   2.834   0.511 -1.8605 -0.2576  1.3555
  352SOL    HW2 1238   2.823   2.972   0.486  1.1629  1.2171 -1.2065
  353SOL     OW 1239   0.094   1.882   2.738  0.0609  0.2548  0.1073
  353SOL    HW1 1240   0.159   1.956   2.757  0.5703 -0.7035  2.3691
  353SOL    HW2 1241   0.135   1.820   2.671 -0.0852  1.5645 -1.2768
  354SOL     OW 1242   2.474   4.141   3.673  0.0362 -0.4630  0.1814
  354SOL    HW1 1243   2.561   4.147   3.722 -0.1558 -2.4581  0.8675
  354SOL    HW2 1244   2.457   4.045   3.648 -0.5724  0.2769 -2.5738
  355SOL     OW 1245   2.883   2.775   1.380 -0.9290  0.1220  0.1305
  355SOL    HW1 1246   2.885   2.703   1.448  1.2442 -0.4843 -0.4921
  355SOL    HW2 1247   2.884   2.864   1.426 -0.8026 -0.2616  0.8851
  356SOL     OW 1248   1.312   2.069   1.094 -0.4064  0.2851  0.0985
  356SOL    HW1 1249   1.252   2.020   1.031 -0.5276  1.0457 -0.3871
  356SOL    HW2 1250   1.258   2.137   1.145 -0.3448 -0.4366  1.1550
  357SOL     OW 1251   1.326   3.329   0.579  0.2587  0.1932 -0.2784
  357SOL    HW1 1252   1.397   3.302   0.514  0.6082 -0.7793  0.4712
  357SOL    HW2 1253   1.238   3.292   0.548  0.8013 -2.3859  0.9654
  358SOL     OW 1254   4.210   4.049   3.563 -0.2370 -0.7373  0.2621
  358SOL    HW1 1255   4.119   4.055   3.522 -1.3738 -0.1796  2.7048
  358SOL    HW2 1256   4.202   4.019   3.658  2.2438 -1.6753  0.2477
  359SOL     OW 1257   0.491   0.257   3.384 -0.5483  0.2105 -0.5274
  359SOL    HW1 1258   0.512   0.255   3.481 -1.6370 -1.6084 -0.2745
  359SOL    HW2 1259   0.575   0.274   3.332  0.1506  0.5665  0.6978
  360SOL     OW 1260   0.382   0.670   2.483  0.1961 -0.0887 -0.1350
  360SOL    HW1 1261   0.482   0.662   2.484  0.1790 -0.9025 -1.5727
  360SOL    HW2 1262   0.356   0.766   2.492  1.0739  0.0467  1.0855
  361SOL     OW 1263   2.954   3.166   2.337 -0.0225 -0.3125 -0.3458
  361SOL    HW1 1264   3.004   3.221   2.403 -2.5656  1.4434  0.2531
  361SOL    HW2 1265   2.915   3.086   2.383  0.0020 -0.2541 -0.2247
  362SOL     OW 1266   2.174   2.559   0.682  0.2069 -0.2239 -0.2555
  362SOL    HW1 1267   2.157   2.656   0.702  1.6112  0.2533 -1.2349
  362SOL    HW2 1268   2.115   2.531   0.606 -0.4790 -0.2652  0.2765
  363SOL     OW 1269   1.881   0.203   1.258 -0.3130  0.7143 -0.1320
  363SOL    HW1 1270   1.923   0.289   1.288  0.3779  0.1636  0.5442
  363SOL    HW2 1271   1.858   0.148   1.339 -0.6956  0.2392 -0.5572
  364SOL     OW 1272   2.514   2.909   3.363  0.2516  0.4566 -0.5271
  364SOL    HW1 1273   2.535   2.819   3.325  2.4968  0.5936  0.2476
  364SOL    HW2 1274   2.461   2.961   3.296 -0.2883 -1.0816 -1.3571
  365SOL     OW 1275   2.375   3.293   3.084  0.3544  0.6672  0.1278
  365SOL    HW1 1276   2.427   3.346   3.151 -0.6043  1.5099  0.2233
  365SOL    HW2 1277   2.338   3.212   3.129  2.0768 -0.2902 -0.0911
  366SOL     OW 1278   2.261   3.876   3.410  0.1411  0.2059  0.4454
  366SOL    HW1 1279   2.232   3.971   3.406  0.0639  0.2384  1.4793
  366SOL    HW2 1280   2.249   3.834   3.320 -1.2736  0.7446  0.3635
  367SOL     OW 1281   1.800   1.270   2.895  0.5212  0.0596  0.1289
  367SOL    HW1 1282   1.767   1.336   2.962 -3.2595 -0.9090 -0.5693
  367SOL    HW2 1283   1.763   1.179   2.917  0.4480 -0.5722 -2.3403
  368SOL     OW 1284   0.491   3.837   2.566 -0.2331  0.4573 -0.5828
  368SOL    HW1 1285   0.509   3.774   2.642  1.7532  1.7279  0.0619
  368SOL    HW2 1286   0.541   3.806   2.485  0.5166  1.0257 -0.3453
  369SOL     OW 1287   0.054   4.069   3.143 -0.3679 -0.0358 -0.5670
  369SOL    HW1 1288   0.148   4.100   3.152  0.2765 -1.9535 -0.2590
  369SOL    HW2 1289   0.032   4.061   3.046 -0.3606  0.7750 -0.6442
  370SOL     OW 1290   3.468   2.590   0.359 -0.1566  0.3793  0.3520
  370SOL    HW1 1291   3.515   2.582   0.447 -1.3249 -0.9941  0.9067
  370SOL    HW2 1292   3.513   2.529   0.293 -0.1568  0.3024  0.4216
  371SOL     OW 1293   1.479   0.066   0.130  0.8924 -0.8330 -0.5977
  371SOL    HW1 1294   1.412   0.104   0.194  0.8098  1.1007 -1.7443
  371SOL    HW2 1295   1.511  -0.022   0.164 -0.3090 -0.5966  1.2805
  372SOL     OW 1296   3.673   0.908   4.235 -0.7178 -0.0270 -0.2295
  372SOL    HW1 1297   3.717   0.822   4.209 -0.8251  0.0619 -0.7292
  372SOL    HW2 1298   3.612   0.892   4.313 -2.7183 -0.9832 -1.8958
  373SOL     OW 1299   2.938   4.179   3.034  0.0785 -0.5131  0.5392
  373SOL    HW1 1300   2.848   4.184   2.992  0.9503 -1.2612 -1.5090
  373SOL    HW2 1301   2.933   4.218   3.126 -2.2603 -0.3306  0.3925
  374SOL     OW 1302   1.372   3.580   0.968  0.4831  0.0477  0.0384
  374SOL    HW1 1303   1.404   3.574   1.063  0.8560 -0.2203 -0.0992
  374SOL    HW2 1304   1.336   3.491   0.940  0.3125  0.1445 -0.0508
  375SOL     OW 1305   2.612   3.647   4.057  0.4722  0.2677  0.5779
  375SOL    HW1 1306   2.640   3.596   4.139 -0.2827 -0.9641  0.1014
  375SOL    HW2 1307   2.525   3.693   4.075  1.3004  1.7107  1.1092
  376SOL     OW 1308   0.633   1.742   1.833 -0.0230 -0.6541  0.1035
  376SOL    HW1 1309   0.719   1.751   1.883 -0.2915 -1.6130  0.7774
  376SOL    HW2 1310   0.564   1.801   1.876  0.4218  0.5370 -0.7747
  377SOL     OW 1311   2.935   2.476   3.629  0.3789  0.0938  0.4735
  377SOL    HW1 1312   2.863   2.408   3.644  0.4351 -0.3737 -1.1244
  377SOL    HW2 1313   2.978   2.498   3.716 -2.4743  1.3168  1.7012
  378SOL     OW 1314   2.404   0.300   2.353  0.1947 -0.0881 -0.0143
  378SOL    HW1 1315   2.377   0.282   2.258 -2.9547 -0.1414  0.7572
  378SOL    HW2 1316   2.447   0.218   2.391  1.0610 -0.2195 -1.2271
  379SOL     OW 1317   2.387   2.247   0.021  0.1589  0.3806  0.3827
  379SOL    HW1 1318   2.383   2.276  -0.074  2.0472  1.7156  0.6472
  379SOL    HW2 1319   2.384   2.147   0.025  0.3964  0.2914 -1.1049
  380SOL     OW 1320   1.807   2.420   3.531  0.0153 -0.5550  0.3798
  380SOL    HW1 1321   1.719   2.439   3.487  0.1860 -0.2252  0.1821
  380SOL    HW2 1322   1.820   2.321   3.536  0.1440 -0.5979 -0.6126
  381SOL     OW 1323   3.116   3.531   2.972 -0.2682 -0.5337 -0.4347
  381SOL    HW1 1324   3.102   3.628   2.989 -2.4068 -0.8807  0.0450
  381SOL    HW2 1325   3.177   3.494   3.041 -0.4096  0.2319  0.1073
  382SOL     OW 1326   0.994   0.872   0.552  0.6904  0.4741 -0.5089
  382SOL    HW1 1327   0.902   0.893   0.518  0.8933  1.2998 -0.5708
  382SOL    HW2 1328   1.060   0.931   0.506  1.0629  1.0785  0.7577
  383SOL     OW 1329   0.349   0.764   2.230  0.2692  0.1486 -0.9834
  383SOL    HW1 1330   0.381   0.701   2.159  0.2961 -0.2586 -0.6142
  383SOL    HW2 1331   0.333   0.713   2.314  0.5275  0.6756 -0.6069
  384SOL     OW 1332   3.790   0.535   2.324  0.6749 -0.6521 -0.3987
  384SOL    HW1 1333   3.782   0.476   2.244  1.5039 -1.6868  0.2562
  384SOL    HW2 1334   3.698   0.555   2.359  0.3368 -0.6309 -1.2679
  385SOL     OW 1335   1.100   2.890   0.366 -0.0163 -0.4083  0.3789
  385SOL    HW1 1336   1.135   2.979   0.340 -0.8571 -0.4049 -0.7887
  385SOL    HW2 1337   1.164   2.819   0.334 -0.1581 -0.3114 -0.1165
  386SOL     OW 1338   4.160   0.332   2.368  0.0878  0.1033  0.2061
  386SOL    HW1 1339   4.078   0.353   2.421  0.1314  0.2603  0.2121
  386SOL    HW2 1340   4.230   0.400   2.388  1.1151 -1.4173  2.1178
  387SOL     OW 1341   0.442   3.096   4.030  0.1679 -0.0083  0.3036
  387SOL    HW1 1342   0.412   3.164   3.963  0.2933  2.8995  3.0018
  387SOL    HW2 1343   0.371   3.083   4.098  0.7827 -1.4782  0.7190
  388SOL     OW 1344   4.020   4.208   3.209  0.1249  0.4022  0.6614
  388SOL    HW1 1345   3.949   4.181   3.144 -0.3999 -0.7208  1.6501
  388SOL    HW2 1346   4.108   4.173   3.179 -0.1045 -0.0527  0.5041
  389SOL     OW 1347   3.819   4.238   0.958  0.2525 -0.0358  0.2003
  389SOL    HW1 1348   3.734   4.253   0.909 -0.5810  3.2224  2.3165
  389SOL    HW2 1349   3.811   4.154   1.013 -0.7005 -0.9207 -1.2273
  390SOL     OW 1350   2.859   1.442   0.632  0.2575 -0.3600  0.2038
  390SOL    HW1 1351   2.774   1.487   0.657 -1.1939 -2.5735 -0.4311
  390SOL    HW2 1352   2.866   1.355   0.680  0.3760 -1.8770 -2.3415
  391SOL     OW 1353   3.306   2.921   1.376 -0.6741  0.4239  0.6147
  391SOL    HW1 1354   3.316   2.909   1.475  2.8557  1.3270  0.5081
  391SOL    HW2 1355   3.295   2.832   1.333  2.2519 -0.5166  1.5628
  392SOL     OW 1356   0.904   2.087   0.759  0.3174  0.2978  0.0751
  392SOL    HW1 1357   0.861   1.996   0.756  0.9180 -0.0726  1.6629
  392SOL    HW2 1358   0.833   2.156   0.744 -0.0405 -0.4132 -1.8390
  393SOL     OW 1359   1.521   2.636   2.279 -0.1480  0.0099 -0.0772
  393SOL    HW1 1360   1.518   2.703   2.204  0.8656  0.5631  0.3421
  393SOL    HW2 1361   1.546   2.547   2.243  1.7864  0.5714 -0.2657
  394SOL     OW 1362   1.437   1.908   1.296 -0.6403  0.4768 -0.1241
  394SOL    HW1 1363   1.393   1.967   1.228  0.0646  1.2192  0.0471
  394SOL    HW2 1364   1.405   1.814   1.284 -1.4513  0.8171 -0.6848
  395SOL     OW 1365   2.476   2.826   2.142 -0.3282  0.1290  0.0580
  395SOL    HW1 1366   2.545   2.776   2.091 -2.6398 -1.9452 -1.2173
  395SOL    HW2 1367   2.461   2.915   2.098 -2.0753 -1.4887 -2.9318
  396SOL     OW 1368   3.521   3.168   0.461  0.1117 -0.9117 -0.8071
  396SOL    HW1 1369   3.436   3.152   0.512 -0.1403  0.7470 -0.6302
  396SOL    HW2 1370   3.498   3.189   0.366  0.3689 -1.0614 -0.9010
  397SOL     OW 1371   0.836   0.113   0.679 -0.5808  0.0406 -0.2847
  397SOL    HW1 1372   0.909   0.057   0.719 -0.3036 -0.7771 -1.8608
  397SOL    HW2 1373   0.852   0.209   0.702 -0.6493 -0.4221  1.8317
  398SOL     OW 1374   4.078   3.806   0.143  0.8792  0.3434 -0.3429
  398SOL    HW1 1375   4.006   3.776   0.081 -0.1787 -0.5093  1.2292
  398SOL    HW2 1376   4.040   3.866   0.213  1.6805 -0.1126  0.5129
  399SOL     OW 1377   2.700   1.057   0.192  0.3444 -0.4808 -0.1707
  399SOL    HW1 1378   2.687   1.075   0.289 -0.1078  0.6739 -0.4283
  399SOL    HW2 1379   2.643   1.119   0.139  0.6655 -1.0216 -1.1848
  400SOL     OW 1380   1.164   2.538   0.620  0.0881 -0.1331  0.6514
  400SOL    HW1 1381   1.126   2.446   0.619  1.2437 -0.6479  2.0440
  400SOL    HW2 1382   1.090   2.604   0.638 -0.8104 -0.7099 -0.7478
  401SOL     OW 1383   2.585   1.336   0.101 -0.3283  0.1312 -0.3273
  401SOL    HW1 1384   2.493   1.366   0.125 -0.3199  0.5130 -0.7735
  401SOL    HW2 1385   2.639   1.415   0.071  0.9494  0.4101  2.3828
  402SOL     OW 1386   2.309   3.064   3.251 -0.6970  0.1443 -0.3114
  402SOL    HW1 1387   2.295   3.128   3.326 -0.0895  0.2654 -0.2958
  402SOL    HW2 1388   2.222   3.024   3.225 -1.0537  0.8116 -0.1709
  403SOL     OW 1389   0.707   0.029   0.437 -0.9540 -0.3320  0.1735
  403SOL    HW1 1390   0.677  -0.055   0.482  0.2231 -0.2849  1.0904
  403SOL    HW2 1391   0.756   0.086   0.503  1.5954 -0.6470 -1.3125
  404SOL     OW 1392   2.525   3.353   1.888  0.8730 -0.0684  0.2647
  404SOL    HW1 1393   2.469   3.430   1.920 -1.5321 -1.9658  0.8800
  404SOL    HW2 1394   2.610   3.351   1.940  0.3792  1.3788  1.1950
  405SOL     OW 1395   0.183   2.461   1.722  0.0105  0.4160  0.0574
  405SOL    HW1 1396   0.086   2.441   1.704 -0.0652  0.3416  0.5396
  405SOL    HW2 1397   0.199   2.559   1.708 -0.7042  0.9270  2.3921
  406SOL     OW 1398   4.160   0.170   1.152 -0.5760  0.4446 -0.5228
  406SOL    HW1 1399   4.247   0.176   1.102 -0.6525  1.1189 -0.5781
  406SOL    HW2 1400   4.139   0.074   1.168 -1.3749  0.0640 -3.2662
  407SOL     OW 1401   0.968   0.117   2.308  0.3769  0.3751 -0.3354
  407SOL    HW1 1402   1.008   0.173   2.235  1.8336  1.3739  1.1267
  407SOL    HW2 1403   1.013   0.028   2.308 -0.0577  0.1503 -1.0224
  408SOL     OW 1404   0.122   0.488   3.141 -0.1216  0.3289 -0.3096
  408SOL    HW1 1405   0.052   0.504   3.210 -0.2761  1.8491 -0.7736
  408SOL    HW2 1406   0.093   0.529   3.055  0.9430  0.2074 -0.7415
  409SOL     OW 1407   0.393   2.314   1.665 -0.4873 -0.1516 -0.1438
  409SOL    HW1 1408   0.317   2.375   1.689 -0.5712 -0.4214  0.2879
  409SOL    HW2 1409   0.356   2.226   1.637 -0.3648 -0.0069 -0.7602
  410SOL     OW 1410   4.180   0.652   4.111 -0.2917 -0.1100  0.4088
  410SOL    HW1 1411   4.261   0.623   4.162 -0.3824 -1.2238 -0.0491
  410SOL    HW2 1412   4.128   0.571   4.083 -0.9508  0.5375 -0.2994
  411SOL     OW 1413   2.295   3.161   0.488 -0.3020  0.3959 -0.3691
  411SOL    HW1 1414   2.226   3.091   0.506  1.1511 -0.5485  1.9202
  411SOL    HW2 1415   2.295   3.227   0.564 -0.7416  2.2010 -1.8490
  412SOL     OW 1416   3.030   0.582   1.917 -0.0566 -0.0731  0.4103
  412SOL    HW1 1417   2.995   0.669   1.880 -0.3002  0.1425  1.1371
  412SOL    HW2 1418   3.119   0.563   1.876 -0.6856 -0.2715 -0.9294
  413SOL     OW 1419   1.434   3.487   1.278  0.0801 -0.0694  0.2845
  413SOL    HW1 1420   1.511   3.465   1.337 -1.8303 -1.4141  2.4693
  413SOL    HW2 1421   1.416   3.411   1.216 -0.6543 -0.6524  1.1771
  414SOL     OW 1422   2.671   2.714   1.966 -0.1260  0.2591 -0.1600
  414SOL    HW1 1423   2.770   2.711   1.954  0.2222 -0.7065  2.2735
  414SOL    HW2 1424   2.632   2.625   1.943 -0.5729  0.8198 -1.7271
  415SOL     OW 1425   3.001   2.423   0.582 -0.2203 -0.0176  0.2035
  415SOL    HW1 1426   3.083   2.384   0.625  0.7184 -0.3727 -1.7594
  415SOL    HW2 1427   2.995   2.389   0.488 -2.1441  0.7341  0.0161
  416SOL     OW 1428   4.208   3.384   4.206 -0.8648  0.7045  0.2101
  416SOL    HW1 1429   4.209   3.450   4.281 -0.6681  1.3911 -0.3825
  416SOL    HW2 1430   4.114   3.359   4.185 -0.8799 -0.5137  1.5412
  417SOL     OW 1431   1.646   4.120   0.202  0.0454 -0.0547 -0.2453
  417SOL    HW1 1432   1.654   4.079   0.293  0.9830  0.7339  0.0516
  417SOL    HW2 1433   1.730   4.169   0.181  0.0670 -0.7016 -1.7954
  418SOL     OW 1434   1.049   2.137   1.525  0.1124  0.6881  0.2401
  418SOL    HW1 1435   1.149   2.143   1.530  0.0965  0.0572  2.1083
  418SOL    HW2 1436   1.019   2.052   1.566 -1.1715  0.3261 -1.3374
  419SOL     OW 1437   2.573   3.840   0.651 -0.4894 -0.0692 -0.1357
  419SOL    HW1 1438   2.507   3.765   0.650  1.7840 -2.3182  1.8912
  419SOL    HW2 1439   2.657   3.809   0.607  0.5858  1.2069  0.9337
  420SOL     OW 1440   0.369   0.637   1.339  0.0922 -0.6142  0.4318
  420SOL    HW1 1441   0.438   0.663   1.272  0.6238 -0.9451  0.8500
  420SOL    HW2 1442   0.285   0.689   1.321  0.2750 -0.5858 -0.3918
  421SOL     OW 1443   2.542   2.673   3.264  0.1740  0.2744 -0.6000
  421SOL    HW1 1444   2.475   2.598   3.260  0.6768 -0.4576  2.0999
  421SOL    HW2 1445   2.620   2.643   3.320  0.7443  2.5757 -0.0768
  422SOL     OW 1446   2.780   2.844   0.894 -0.9148 -0.3202  0.1685
  422SOL    HW1 1447   2.812   2.749   0.903  0.7300  0.3527  2.2464
  422SOL    HW2 1448   2.853   2.900   0.856 -1.4145  0.3538  0.1849
  423SOL     OW 1449   3.546   2.895   1.259 -0.5261 -0.6334  0.3544
  423SOL    HW1 1450   3.454   2.903   1.298 -0.1115  0.6352  1.1225
  423SOL    HW2 1451   3.541   2.909   1.160 -1.2301 -1.1415  0.3101
  424SOL     OW 1452   2.501   1.192   4.163 -0.2785 -0.5309  0.1644
  424SOL    HW1 1453   2.551   1.244   4.233  0.2677 -1.2441  0.3184
  424SOL    HW2 1454   2.409   1.230   4.154 -0.1665 -0.0646  0.8624
  425SOL     OW 1455   1.672   2.675   2.489  0.4857 -0.3430  0.5815
  425SOL    HW1 1456   1.601   2.662   2.421  0.9031  1.0055 -0.1496
  425SOL    HW2 1457   1.686   2.589   2.539 -1.3339 -0.7426  0.4671
  426SOL     OW 1458   3.682   2.412   0.284 -0.0694 -0.5308  0.4179
  426SOL    HW1 1459   3.711   2.331   0.234  1.3044 -0.2162  0.6839
  426SOL    HW2 1460   3.703   2.494   0.230 -1.0955 -0.3051  0.3206
  427SOL     OW 1461   2.978   0.581   0.020  0.2055 -0.6549  0.0876
  427SOL    HW1 1462   2.895   0.618  -0.022  0.7638  1.0633  0.4114
  427SOL    HW2 1463   3.000   0.493  -0.021 -1.2661 -0.7040 -0.6459
  428SOL     OW 1464   2.970   2.743   2.045 -0.3576 -0.4476  0.0088
  428SOL    HW1 1465   2.924   2.797   2.115 -1.3092 -3.7456  2.1951
  428SOL    HW2 1466   3.060   2.716   2.079 -0.1566 -0.7687 -0.7571
  429SOL     OW 1467   0.752   2.122   1.137 -0.1131 -0.4998 -0.1160
  429SOL    HW1 1468   0.791   2.176   1.212  0.9140  0.6590 -1.4226
  429SOL    HW2 1469   0.826   2.073   1.090 -0.7481 -1.2692 -0.3306
  430SOL     OW 1470   0.975   3.454   3.376  0.1569  0.1748 -0.1105
  430SOL    HW1 1471   0.961   3.383   3.307  5.6082 -1.3312 -0.1056
  430SOL    HW2 1472   0.943   3.421   3.465 -2.2629  0.0807 -0.9336
  431SOL     OW 1473   0.257   2.068   1.028 -0.0284  0.3209  0.2858
  431SOL    HW1 1474   0.244   2.060   1.127 -1.2576  0.2976  0.1431
  431SOL    HW2 1475   0.307   2.152   1.008  0.0474  0.4299  0.9206
  432SOL     OW 1476   0.779   3.243   0.024 -0.1835 -0.3236  0.6364
  432SOL    HW1 1477   0.715   3.250   0.101  0.0663 -1.2185  0.9417
  432SOL    HW2 1478   0.825   3.154   0.028 -0.7993 -0.7547 -1.0621
  433SOL     OW 1479   2.411   3.130   0.827  0.3037  0.1228 -0.5127
  433SOL    HW1 1480   2.482   3.069   0.793 -0.2339 -0.5738 -0.4096
  433SOL    HW2 1481   2.383   3.100   0.918 -0.2559  0.2809 -0.6324
  434SOL     OW 1482   0.093   2.768   1.659  0.2800  0.3165  0.0463
  434SOL    HW1 1483   0.003   2.778   1.617 -0.5070  0.5946  1.7016
  434SOL    HW2 1484   0.163   2.804   1.598 -0.5595 -1.1549 -1.8697
  435SOL     OW 1485   1.904   2.683   3.976 -0.4785 -0.2980  0.5279
  435SOL    HW1 1486   1.839   2.613   3.945  0.3922 -0.3573 -1.2900
  435SOL    HW2 1487   1.866   2.773   3.958  0.6506 -0.3009 -2.4153
  436SOL     OW 1488   1.334   0.821   0.301 -0.6679 -0.5445  0.2035
  436SOL    HW1 1489   1.394   0.793   0.376 -1.7027  0.8632  1.6125
  436SOL    HW2 1490   1.262   0.882   0.337 -0.4844  1.1669 -2.1139
  437SOL     OW 1491   2.592   3.803   2.981 -0.4745  0.2420  0.2564
  437SOL    HW1 1492   2.556   3.710   2.982 -1.0805  0.4818  0.7941
  437SOL    HW2 1493   2.617   3.830   3.074 -0.0143  0.5108  0.0600
  438SOL     OW 1494   3.440   0.044   3.321 -0.0612  0.1389  0.3043
  438SOL    HW1 1495   3.505   0.003   3.385 -0.5735  0.2242  0.8913
  438SOL    HW2 1496   3.413  -0.024   3.253 -0.5540 -0.3758  0.9991
  439SOL     OW 1497   4.224   2.175   0.558  0.7936 -0.1779  0.4788
  439SOL    HW1 1498   4.225   2.079   0.586 -0.0145  0.3669  2.5630
  439SOL    HW2 1499   4.178   2.183   0.470  1.7331 -1.7993 -0.1915
  440SOL     OW 1500   0.896   3.448   2.895  0.5800 -0.6925 -0.3783
  440SOL    HW1 1501   0.876   3.394   2.976  0.8971 -2.0407 -1.1810
  440SOL    HW2 1502   0.959   3.523   2.920 -0.4343 -0.2280  0.8745
  441SOL     OW 1503   1.173   2.480   2.418  0.0284 -0.0447  0.1484
  441SOL    HW1 1504   1.096   2.466   2.480  0.7027  0.4093  1.1180
  441SOL    HW2 1505   1.257   2.450   2.463  0.5017  0.0421 -0.6544
  442SOL     OW 1506   2.103   3.352   1.712  0.0178  0.6650  0.5313
  442SOL    HW1 1507   2.184   3.297   1.731 -1.0513 -0.8899  0.7427
  442SOL    HW2 1508   2.074   3.337   1.618 -0.9393 -0.0591  0.9265
  443SOL     OW 1509   1.258   3.135   0.293  0.0339 -0.0700  0.2622
  443SOL    HW1 1510   1.266   3.081   0.210 -0.6244 -0.1893  0.2674
  443SOL    HW2 1511   1.339   3.193   0.303  1.2958 -1.8630  0.8665
  444SOL     OW 1512   2.197   3.498   4.159  0.4781 -0.0901  0.3873
  444SOL    HW1 1513   2.238   3.574   4.108  1.9855 -1.3968 -0.4404
  444SOL    HW2 1514   2.153   3.534   4.241  0.1593  1.7926 -0.5499
  445SOL     OW 1515   0.942   2.112   2.685  0.1064  0.3579 -0.2724
  445SOL    HW1 1516   0.949   2.013   2.674  3.0785  0.4417  0.0693
  445SOL    HW2 1517   0.851   2.135   2.721 -0.7846 -2.1582 -0.7271
  446SOL     OW 1518   1.379   2.926   3.145 -0.5338  0.2542 -0.6697
  446SOL    HW1 1519   1.306   2.992   3.125  0.7092  1.1620 -2.4944
  446SOL    HW2 1520   1.402   2.877   3.061  0.8852 -0.0831 -0.1088
  447SOL     OW 1521   2.818   1.332   3.584 -0.3079  0.3217  0.2492
  447SOL    HW1 1522   2.837   1.406   3.520  0.8023 -0.3958 -0.2955
  447SOL    HW2 1523   2.774   1.256   3.535  0.4541 -0.1898  0.3247
  448SOL     OW 1524   0.319   2.030   2.752  0.4732 -0.1426 -0.0924
  448SOL    HW1 1525   0.335   2.098   2.680  0.1897 -1.3902 -1.3875
  448SOL    HW2 1526   0.389   1.959   2.747  0.1965 -0.4782  0.5789
  449SOL     OW 1527   3.504   2.827   2.427  0.2885  0.2809  0.5039
  449SOL    HW1 1528   3.413   2.796   2.402  0.5886  0.0614 -0.3508
  449SOL    HW2 1529   3.533   2.899   2.363  0.7393  0.2991  0.7271
  450SOL     OW 1530   4.152   2.557   1.202  0.0917 -0.4446 -0.0555
  450SOL    HW1 1531   4.067   2.572   1.252 -0.2742 -2.1786 -0.0883
  450SOL    HW2 1532   4.131   2.509   1.117  0.7241  2.2159 -1.8319
  451SOL     OW 1533   0.043   3.782   3.035  0.2167  0.0881 -0.2099
  451SOL    HW1 1534   0.056   3.688   3.066 -2.5030  0.1060  1.3538
  451SOL    HW2 1535   0.040   3.842   3.115 -2.2980  0.8295 -0.7696
  452SOL     OW 1536   0.037   3.669   3.370 -0.2004  0.0663 -0.4323
  452SOL    HW1 1537   0.073   3.762   3.375  0.1950 -0.1257  0.6224
  452SOL    HW2 1538   0.091   3.617   3.304  0.7421  0.1063  0.2839
  453SOL     OW 1539   1.714   2.517   3.790 -0.7891  0.2229  0.0479
  453SOL    HW1 1540   1.714   2.429   3.838  0.5748 -0.0845 -0.4877
  453SOL    HW2 1541   1.719   2.501   3.692 -1.9105  0.8898 -0.1394
  454SOL     OW 1542   3.737   3.047   1.612  0.3093  0.3912  0.1026
  454SOL    HW1 1543   3.740   3.059   1.513 -1.8065  2.2483  0.1913
  454SOL    HW2 1544   3.799   3.112   1.655  0.3916  0.3618  0.0273
  455SOL     OW 1545   1.429   3.863   2.189 -0.4300 -0.3989  0.2767
  455SOL    HW1 1546   1.436   3.870   2.089 -0.5213  1.1158  0.3481
  455SOL    HW2 1547   1.359   3.797   2.213 -0.5502 -0.6283 -0.6689
  456SOL     OW 1548   2.613   3.989   0.095  0.0349 -0.5873 -0.7758
  456SOL    HW1 1549   2.700   3.942   0.082  1.2903  0.9712  1.3345
  456SOL    HW2 1550   2.587   3.985   0.192 -0.8032  1.2914 -0.8697
  457SOL     OW 1551   3.234   3.219   2.817 -0.0382  0.0715  0.7451
  457SOL    HW1 1552   3.294   3.283   2.865  1.5828  0.3104 -1.4259
  457SOL    HW2 1553   3.283   3.132   2.804 -0.0351  0.3353 -1.2568
  458SOL     OW 1554   2.541   3.915   0.344  0.8645  0.1059  0.6168
  458SOL    HW1 1555   2.466   3.943   0.404 -0.8128 -0.6896 -1.0248
  458SOL    HW2 1556   2.612   3.870   0.399 -0.9869 -1.3689  1.9257
  459SOL     OW 1557   2.776   3.411   2.990  0.3654  0.0312  0.4402
  459SOL    HW1 1558   2.851   3.367   2.941  0.4566  1.1251 -0.4489
  459SOL    HW2 1559   2.810   3.447   3.077  0.9021  0.5585  0.0229
  460SOL     OW 1560   1.566   2.201   1.144  0.2784 -0.4417  0.1950
  460SOL    HW1 1561   1.643   2.175   1.086 -0.2740 -0.6588 -0.4603
  460SOL    HW2 1562   1.491   2.136   1.130  0.2680 -0.7123  1.4479
  461SOL     OW 1563   1.627   3.140   1.600 -0.4476  0.6911 -0.0337
  461SOL    HW1 1564   1.699   3.097   1.654 -0.5329  2.4338  1.5768
  461SOL    HW2 1565   1.586   3.072   1.539  1.1500 -0.8166  0.5059
  462SOL     OW 1566   1.616   2.573   0.085 -0.3961 -0.0095 -0.0822
  462SOL    HW1 1567   1.708   2.549   0.053 -0.4438  0.2664 -0.4328
  462SOL    HW2 1568   1.599   2.529   0.173 -0.6372 -1.5988 -0.8926
  463SOL     OW 1569   3.059   3.104   0.366 -0.8023 -0.3815  0.5569
  463SOL    HW1 1570   3.051   3.051   0.281  0.4311 -0.7798  0.6724
  463SOL    HW2 1571   3.017   3.053   0.440 -1.4139 -0.2718  0.2937
  464SOL     OW 1572   3.303   3.211   4.040  0.2226 -0.3941  0.0117
  464SOL    HW1 1573   3.234   3.138   4.047 -1.2699  1.0560  1.4496
  464SOL    HW2 1574   3.262   3.290   3.995  0.7124  0.7448  1.5045
  465SOL     OW 1575   1.256   3.351   0.844  0.2053  0.3354 -0.0445
  465SOL    HW1 1576   1.286   3.322   0.753 -0.2359  0.3914 -0.2109
  465SOL    HW2 1577   1.204   3.277   0.886 -0.5881  0.7355 -0.3114
  466SOL     OW 1578   2.857   3.476   3.254  0.5237  0.1801  0.1144
  466SOL    HW1 1579   2.833   3.562   3.299 -2.5063 -1.2857  1.6150
  466SOL    HW2 1580   2.941   3.439   3.295  0.8841  1.5352  0.6520
  467SOL     OW 1581   1.034   3.038   2.678 -0.5313  0.1489  1.0624
  467SOL    HW1 1582   1.007   2.978   2.603  2.3806 -0.0044 -0.0082
  467SOL    HW2 1583   1.005   3.132   2.657  0.6378  0.1889 -0.5488
  468SOL     OW 1584   0.991   3.490   0.872 -0.2499 -0.0182 -0.3167
  468SOL    HW1 1585   1.042   3.405   0.886  0.4659  0.5231  0.4781
  468SOL    HW2 1586   0.893   3.472   0.875 -0.1053 -0.6996  0.6204
  469SOL     OW 1587   1.993   3.710   2.451 -0.0137 -0.3345  0.0198
  469SOL    HW1 1588   2.041   3.763   2.381  0.3331 -0.7412 -0.0583
  469SOL    HW2 1589   2.044   3.625   2.468  0.3369  0.1137  1.3362
  470SOL     OW 1590   2.968   3.316   2.577  0.0641 -0.1507 -0.1944
  470SOL    HW1 1591   2.992   3.407   2.545 -0.7539  0.6519  1.3851
  470SOL    HW2 1592   2.973   3.314   2.677  0.7023 -2.0312 -0.2202
  471SOL     OW 1593   2.907   3.911   0.360 -0.8318 -0.4931 -0.3363
  471SOL    HW1 1594   2.903   3.849   0.438 -2.1397 -0.2160 -0.1470
  471SOL    HW2 1595   2.930   3.859   0.278  0.0745 -0.8717  0.1485
  472SOL     OW 1596   1.999   3.642   3.860 -0.1541  0.0397 -0.1984
  472SOL    HW1 1597   1.976   3.586   3.940  0.3699  0.3489  0.1798
  472SOL    HW2 1598   1.944   3.612   3.782 -2.1832  1.0723  0.7579
  473SOL     OW 1599   3.620   0.178   2.731  0.0049 -0.3764  0.0357
  473SOL    HW1 1600   3.538   0.125   2.708 -0.1191 -0.9330  1.6303
  473SOL    HW2 1601   3.606   0.273   2.707 -1.2683 -0.4019  0.6000
  474SOL     OW 1602   0.056   4.245   2.515 -0.6223  0.0069 -0.0305
  474SOL    HW1 1603   0.081   4.339   2.492 -3.4314  0.5932 -1.1073
  474SOL    HW2 1604   0.050   4.236   2.615  0.2383  0.7908  0.1003
  475SOL     OW 1605   3.445   3.149   1.983  0.2204 -0.4102 -0.6035
  475SOL    HW1 1606   3.494   3.073   1.942  1.3079  0.6886 -1.3786
  475SOL    HW2 1607   3.353   3.153   1.945  0.8900 -0.0041 -2.2273
  476SOL     OW 1608   0.018   2.224   2.998  0.2624  0.3102 -0.1647
  476SOL    HW1 1609  -0.020   2.137   2.966  1.0359  0.1882 -0.8029
  476SOL    HW2 1610  -0.040   2.262   3.070 -0.1655 -0.6586  0.0092
  477SOL     OW 1611   0.904   2.764   2.053 -0.0487 -0.5432 -0.3175
  477SOL    HW1 1612   0.842   2.685   2.049 -0.2742 -0.3879  0.0560
  477SOL    HW2 1613   0.959   2.766   1.969  1.5329 -2.3646  0.5857
  478SOL     OW 1614   3.800   1.620   1.724 -0.0313 -0.3188 -0.1125
  478SOL    HW1 1615   3.741   1.659   1.795  0.6501 -0.0818  0.3363
  478SOL    HW2 1616   3.857   1.548   1.764 -1.0336 -1.5827 -0.8595
  479SOL     OW 1617   3.992   2.232   0.389 -0.3265 -0.3767 -0.7708
  479SOL    HW1 1618   3.937   2.262   0.467 -1.0404  1.3868 -1.8782
  479SOL    HW2 1619   3.931   2.197   0.317  0.1513 -0.2538 -1.2439
  480SOL     OW 1620   3.984   0.475   0.895  0.3361 -0.1489  0.5118
  480SOL    HW1 1621   3.993   0.451   0.992 -1.2314 -0.4038  0.6257
  480SOL    HW2 1622   3.910   0.421   0.855  0.0930  0.8983 -0.4943
  481SOL     OW 1623   0.313   0.551   2.027 -0.5408  0.0999 -0.0096
  481SOL    HW1 1624   0.295   0.496   1.945  1.0439 -0.6293  0.1153
  481SOL    HW2 1625   0.307   0.493   2.108 -1.7570  0.7517  0.4064
  482SOL     OW 1626   0.636   1.203   3.375  0.1474 -0.2741 -0.0008
  482SOL    HW1 1627   0.565   1.136   3.395 -1.5312  0.7286 -2.1355
  482SOL    HW2 1628   0.623   1.283   3.433 -0.5566 -0.0419 -0.4741
  483SOL     OW 1629   2.687   0.057   2.205  0.3772  0.0459  0.3775
  483SOL    HW1 1630   2.760  -0.012   2.207  0.7235  0.4108  0.4109
  483SOL    HW2 1631   2.694   0.115   2.287 -0.0276  0.0041  0.4440
  484SOL     OW 1632   1.869   2.981   3.948  0.1491 -0.1090 -0.3316
  484SOL    HW1 1633   1.900   3.045   3.878  0.5080 -0.7131 -0.7319
  484SOL    HW2 1634   1.770   2.966   3.939  0.0728  0.3476 -0.2650
  485SOL     OW 1635   3.201   1.742   0.403 -0.3467  0.4017 -0.7241
  485SOL    HW1 1636   3.278   1.749   0.340 -0.2321 -0.1158 -0.6478
  485SOL    HW2 1637   3.216   1.664   0.464  0.3301  1.7877  0.9893
  486SOL     OW 1638   2.526   3.257   0.358  0.4440 -0.4328 -0.1929
  486SOL    HW1 1639   2.523   3.270   0.259  1.9657 -1.7336 -0.4584
  486SOL    HW2 1640   2.440   3.216   0.389 -0.2719  0.5234 -0.8627
  487SOL     OW 1641   3.217   1.416   3.119 -0.4094  0.0662 -0.4500
  487SOL    HW1 1642   3.213   1.515   3.102 -0.5938 -0.0559 -1.1646
  487SOL    HW2 1643   3.216   1.399   3.218  0.3910  0.8089 -0.3011
  488SOL     OW 1644   4.027   1.515   3.961  0.2099 -0.2063  0.1423
  488SOL    HW1 1645   4.049   1.502   4.058  1.5623  1.2015  0.0544
  488SOL    HW2 1646   4.105   1.555   3.914 -0.3379 -1.0808 -1.6123
  489SOL     OW 1647   2.843   2.897   2.221 -0.1897  0.0513  0.5709
  489SOL    HW1 1648   2.823   2.827   2.290 -1.0316 -0.7932 -0.4900
  489SOL    HW2 1649   2.802   2.984   2.249 -0.8133 -0.3648  0.9669
  490SOL     OW 1650   2.417   2.843   2.400 -0.4310 -0.8091  0.2007
  490SOL    HW1 1651   2.370   2.931   2.411  0.9068 -0.1851  1.3183
  490SOL    HW2 1652   2.439   2.830   2.303  1.4684  1.3022  0.2407
  491SOL     OW 1653   3.663   2.024   1.200  0.5028 -0.0799  0.8084
  491SOL    HW1 1654   3.634   1.928   1.194  1.3080 -0.3472  1.1430
  491SOL    HW2 1655   3.583   2.082   1.183  0.1783 -0.7985 -0.2614
  492SOL     OW 1656   2.249   1.317   0.048  0.0306  0.1061 -0.1335
  492SOL    HW1 1657   2.184   1.270   0.107 -0.1756 -0.4585 -0.7923
  492SOL    HW2 1658   2.207   1.335  -0.041  0.8454 -0.5125 -0.6675
  493SOL     OW 1659   2.334   3.196   1.770  0.3946  0.0592  0.5931
  493SOL    HW1 1660   2.407   3.256   1.803  0.6605  1.8281 -2.8058
  493SOL    HW2 1661   2.376   3.112   1.733  0.8932  1.2973 -1.8376
  494SOL     OW 1662   0.318   2.106   1.481  0.1620  0.3099 -0.5786
  494SOL    HW1 1663   0.384   2.082   1.411  1.1680 -0.6782  0.6603
  494SOL    HW2 1664   0.283   2.022   1.524  0.4321  0.8937  0.8522
  495SOL     OW 1665   2.621   2.241   0.818  0.2566  0.5527 -0.1003
  495SOL    HW1 1666   2.560   2.253   0.740  0.8496  1.6531 -0.4143
  495SOL    HW2 1667   2.690   2.313   0.817  1.1912 -0.3060  0.5943
  496SOL     OW 1668   0.283   1.882   0.621  0.2653 -0.5757 -0.0568
  496SOL    HW1 1669   0.268   1.862   0.718  0.2720 -1.1134 -0.1667
  496SOL    HW2 1670   0.293   1.981   0.610 -1.4384 -0.3379  0.2505
  497SOL     OW 1671   3.924   2.861   1.152  0.4421 -0.0346 -0.0332
  497SOL    HW1 1672   4.023   2.860   1.165  0.6740  0.9510 -1.6213
  497SOL    HW2 1673   3.883   2.928   1.214  0.7257 -0.5587  0.7406
  498SOL     OW 1674   3.502   3.009   2.215  0.1410 -0.1402  0.1700
  498SOL    HW1 1675   3.583   3.050   2.257 -1.6868  2.2713  1.5887
  498SOL    HW2 1676   3.456   3.078   2.159 -1.6561 -1.0082  0.5096
  499SOL     OW 1677   3.104   3.372   3.297  0.7842  0.6430 -0.2403
  499SOL    HW1 1678   3.152   3.436   3.357 -0.3093  0.9105  0.3753
  499SOL    HW2 1679   3.059   3.302   3.353 -1.4781  1.7261 -0.5730
  500SOL     OW 1680   2.632   1.139   0.444  0.4375  0.8376  0.6070
  500SOL    HW1 1681   2.719   1.123   0.489 -0.1182  0.7649  1.7003
  500SOL    HW2 1682   2.613   1.237   0.442  0.0781  0.7944  1.3275
  501SOL     OW 1683   3.861   4.121   1.290  0.6844 -0.2338 -0.3502
  501SOL    HW1 1684   3.840   4.212   1.325 -0.5944 -0.6632  0.0778
  501SOL    HW2 1685   3.947   4.089   1.329 -0.6662 -0.6971  2.5203
  502SOL     OW 1686   3.211   3.605   2.695 -0.2039  0.2201 -0.2172
  502SOL    HW1 1687   3.166   3.577   2.780  0.4192 -2.0108 -0.5427
  502SOL    HW2 1688   3.156   3.572   2.617 -0.1520  1.1778 -0.6686
  503SOL     OW 1689   4.024   1.662   1.009 -0.5101  0.3170 -0.3807
  503SOL    HW1 1690   3.930   1.670   0.977 -0.7424 -0.0463  0.1898
  503SOL    HW2 1691   4.024   1.658   1.109  0.1484  0.7958 -0.3604
  504SOL     OW 1692   1.518   3.506   1.685 -0.0944 -0.1157  0.1218
  504SOL    HW1 1693   1.594   3.520   1.748 -0.7392 -1.4339  1.2199
  504SOL    HW2 1694   1.431   3.515   1.734 -0.6025 -1.4368 -0.4753
  505SOL     OW 1695   0.195   4.179   3.591  0.0643 -0.4099  0.1189
  505SOL    HW1 1696   0.204   4.214   3.498 -0.9205  1.7180  0.7645
  505SOL    HW2 1697   0.105   4.138   3.602  0.7385 -2.0978 -0.2519
  506SOL     OW 1698   1.291   3.080   2.533  0.2571 -0.4372  0.0773
  506SOL    HW1 1699   1.359   3.153   2.542 -1.2063  1.2924 -2.0253
  506SOL    HW2 1700   1.219   3.094   2.601  0.3532 -0.3890  0.1701
  507SOL     OW 1701   2.910   4.240   2.445  0.0540  0.0309 -0.1254
  507SOL    HW1 1702   2.843   4.312   2.460  0.1868 -0.0134  0.7526
  507SOL    HW2 1703   2.911   4.216   2.348 -2.5658 -1.2729  0.0575
  508SOL     OW 1704   0.420   4.034   3.622  0.0213 -0.0918  0.0288
  508SOL    HW1 1705   0.326   4.070   3.621 -0.0222 -0.2028  0.0575
  508SOL    HW2 1706   0.434   3.978   3.540 -0.0815 -0.4365  0.2410
  509SOL     OW 1707   2.418   2.460   0.514  0.0668 -0.2815 -0.1857
  509SOL    HW1 1708   2.374   2.516   0.584  0.6684  2.0051 -1.5406
  509SOL    HW2 1709   2.355   2.445   0.439  1.0120  1.8534 -1.5129
  510SOL     OW 1710   3.098   2.398   2.199  0.0894 -0.8325  0.5246
  510SOL    HW1 1711   3.133   2.487   2.172 -3.3120 -0.1732 -2.3309
  510SOL    HW2 1712   3.130   2.329   2.135 -1.4777 -0.6817 -0.4695
  511SOL     OW 1713   3.368   3.703   2.178 -0.7038 -0.3575  0.0895
  511SOL    HW1 1714   3.439   3.719   2.109 -0.2490  1.9004  1.0051
  511SOL    HW2 1715   3.378   3.610   2.214  1.8067 -0.1248  0.1675
  512SOL     OW 1716   3.198   1.893   2.464 -0.2720 -0.0204 -0.1335
  512SOL    HW1 1717   3.108   1.934   2.447  0.4015  1.5567 -0.0953
  512SOL    HW2 1718   3.269   1.958   2.436  0.8664 -0.0979  2.3643
  513SOL     OW 1719   3.209   2.346   3.613  0.2418  0.0107  0.4681
  513SOL    HW1 1720   3.109   2.352   3.606  0.3763  0.7741 -1.4610
  513SOL    HW2 1721   3.237   2.376   3.704 -1.1425  2.4188  0.1876
  514SOL     OW 1722   2.128   2.497   2.968 -0.7274 -0.2411  0.0213
  514SOL    HW1 1723   2.123   2.401   2.996  2.7143 -0.1975  1.3086
  514SOL    HW2 1724   2.218   2.515   2.927 -1.0903  2.5065  0.2155
  515SOL     OW 1725   4.189   2.816   1.204  0.2266 -0.2557 -0.0714
  515SOL    HW1 1726   4.175   2.717   1.198 -1.7704  0.0217 -0.8064
  515SOL    HW2 1727   4.198   2.843   1.300 -0.2296 -1.0300  0.1929
  516SOL     OW 1728   1.191   2.078   2.557  0.7498 -0.8482  0.0965
  516SOL    HW1 1729   1.216   2.008   2.489 -0.4431 -0.5370 -0.7030
  516SOL    HW2 1730   1.118   2.041   2.615  0.2952 -0.3621 -0.1631
  517SOL     OW 1731   3.127   0.009   0.810  0.1062 -0.1995 -0.4974
  517SOL    HW1 1732   3.052  -0.052   0.783  0.7028 -1.3229  0.2743
  517SOL    HW2 1733   3.176   0.040   0.729 -0.4445 -0.4350 -0.9273
  518SOL     OW 1734   1.876   2.622   1.279  0.3141 -0.3344  0.1354
  518SOL    HW1 1735   1.817   2.544   1.296 -1.3030  1.0374  1.1564
  518SOL    HW2 1736   1.836   2.678   1.206  1.3103 -0.2939 -0.4059
  519SOL     OW 1737   3.563   2.964   1.803 -0.2834  0.8432 -0.1113
  519SOL    HW1 1738   3.652   2.980   1.759  0.1927 -0.0566  0.4705
  519SOL    HW2 1739   3.577   2.902   1.880 -1.4449  0.6183 -0.0768
  520SOL     OW 1740   0.650   2.827   2.698 -0.2806 -0.6815 -0.0935
  520SOL    HW1 1741   0.634   2.920   2.665 -0.7763 -0.6446  0.2415
  520SOL    HW2 1742   0.579   2.803   2.764  0.4445 -0.9084  0.6251
  521SOL     OW 1743   0.812   3.485   2.451  0.3667  0.0341  0.1227
  521SOL    HW1 1744   0.789   3.550   2.379 -1.3282 -1.0545 -0.3729
  521SOL    HW2 1745   0.739   3.483   2.518  1.2639 -0.0232  1.1306
  522SOL     OW 1746   2.875   2.656   0.488 -0.1557 -0.0556  0.4035
  522SOL    HW1 1747   2.939   2.599   0.540  1.3876  1.7357  0.5772
  522SOL    HW2 1748   2.787   2.659   0.535 -0.5171 -2.7640  0.0490
  523SOL     OW 1749   0.531   3.412   3.114  0.5495 -0.1559  0.0555
  523SOL    HW1 1750   0.510   3.409   3.212  2.0651 -1.4309  0.3877
  523SOL    HW2 1751   0.492   3.331   3.070 -0.0009  0.3407 -0.3784
  524SOL     OW 1752   3.905   3.757   2.310 -0.1306 -0.3197 -0.8690
  524SOL    HW1 1753   3.976   3.795   2.250 -1.2021 -0.1638 -2.0744
  524SOL    HW2 1754   3.916   3.796   2.402  1.8376 -0.9275 -0.7909
  525SOL     OW 1755   1.361   3.014   0.074  0.0532 -0.2057  0.5144
  525SOL    HW1 1756   1.442   3.071   0.081 -0.5558  0.8466 -0.5877
  525SOL    HW2 1757   1.387   2.925   0.035  0.6851  0.0779  0.2739
  526SOL     OW 1758   0.698   3.029   1.977 -0.1423 -0.0598  0.0963
  526SOL    HW1 1759   0.793   3.057   1.992  0.0932 -0.2032 -1.0633
  526SOL    HW2 1760   0.680   2.946   2.031  0.5463 -0.3363 -0.0810
  527SOL     OW 1761   3.536   2.613   1.523 -0.9511 -0.1490 -0.0777
  527SOL    HW1 1762   3.576   2.565   1.445 -0.0418 -0.1982  0.4043
  527SOL    HW2 1763   3.446   2.649   1.497  0.4138  2.1936 -2.0626
  528SOL     OW 1764   4.227   0.317   1.453 -0.3956  0.0848 -0.1336
  528SOL    HW1 1765   4.248   0.284   1.361 -0.4047 -0.8664  0.2013
  528SOL    HW2 1766   4.219   0.239   1.515  0.2355  0.7515  0.8057
  529SOL     OW 1767   0.300   2.109   2.009 -0.0230 -0.0389  0.0260
  529SOL    HW1 1768   0.232   2.037   2.021 -0.0243 -0.9054 -3.8513
  529SOL    HW2 1769   0.254   2.192   1.978  0.5454 -0.7258 -2.9439
  530SOL     OW 1770   1.422   2.429   1.938 -0.1851 -0.1283 -0.0822
  530SOL    HW1 1771   1.493   2.414   2.006  0.9126  2.6189 -0.4654
  530SOL    HW2 1772   1.441   2.515   1.889 -2.8022 -0.2208 -1.4680
  531SOL     OW 1773   0.419   2.805   2.833  0.1255  0.4419  0.8981
  531SOL    HW1 1774   0.462   2.763   2.913 -1.2547 -1.0578  0.9007
  531SOL    HW2 1775   0.369   2.886   2.861  1.6315  1.3341  1.1319
  532SOL     OW 1776   0.406   1.113   2.374 -0.0408  0.1279  0.3677
  532SOL    HW1 1777   0.466   1.076   2.303  0.9493  1.1555  0.6315
  532SOL    HW2 1778   0.359   1.194   2.338  0.0791  0.3539  0.7063
  533SOL     OW 1779   1.436   3.262   3.780  0.1515 -0.2089 -0.0232
  533SOL    HW1 1780   1.524   3.223   3.756  0.6948 -0.3415  1.9823
  533SOL    HW2 1781   1.373   3.251   3.703  2.4462  1.8706 -2.3960
  534SOL     OW 1782   0.601   2.496   1.732  0.1483 -0.0482 -0.1819
  534SOL    HW1 1783   0.646   2.512   1.644  0.5925 -1.6146 -0.2696
  534SOL    HW2 1784   0.545   2.413   1.726 -1.3598  0.8981  0.4534
  535SOL     OW 1785   3.246   2.854   0.969  0.2502  0.1147  0.6150
  535SOL    HW1 1786   3.344   2.866   0.980 -0.0655  1.8656  1.9608
  535SOL    HW2 1787   3.198   2.929   1.014 -1.7548 -1.3664  1.1240
  536SOL     OW 1788   3.931   0.256   3.372 -0.1327  0.4398  0.2447
  536SOL    HW1 1789   3.960   0.163   3.394 -1.9660 -0.2335  0.0418
  536SOL    HW2 1790   3.867   0.253   3.295  1.2094  2.0973 -1.0166
  537SOL     OW 1791   3.741   0.485   2.858 -0.7899 -0.0473 -0.4214
  537SOL    HW1 1792   3.740   0.459   2.955  1.3021  0.3094 -0.2614
  537SOL    HW2 1793   3.834   0.510   2.832 -1.1486 -0.9118 -2.7537
  538SOL     OW 1794   2.195   3.253   0.035 -0.0746  0.1815  0.4280
  538SOL    HW1 1795   2.199   3.336  -0.021 -0.3637  0.8662  1.4005
  538SOL    HW2 1796   2.161   3.177  -0.021  1.0680  0.4832 -0.7292
  539SOL     OW 1797   2.928   2.362   0.072  0.5470  0.1504 -0.1486
  539SOL    HW1 1798   2.832   2.383   0.088  0.5448  1.0968 -1.2245
  539SOL    HW2 1799   2.966   2.430   0.008  1.3354 -1.4919 -1.5213
  540SOL     OW 1800   1.654   3.979   2.613 -0.0193  0.1843  0.2078
  540SOL    HW1 1801   1.615   3.980   2.521  0.0025  1.0181  0.1973
  540SOL    HW2 1802   1.594   3.926   2.674 -0.3091  0.0759 -0.1688
  541SOL     OW 1803   2.134   2.154   0.722 -0.2571  0.2266  0.0778
  541SOL    HW1 1804   2.134   2.248   0.754 -0.8721 -0.2292  1.4924
  541SOL    HW2 1805   2.227   2.119   0.720 -0.1472  0.4668  0.7976
  542SOL     OW 1806   0.667   2.549   1.182  0.5819  0.1195  0.3389
  542SOL    HW1 1807   0.643   2.575   1.275 -1.6583 -1.9397  0.4702
  542SOL    HW2 1808   0.630   2.617   1.118  0.1388  0.3895  0.8741
  543SOL     OW 1809   1.982   3.827   0.020  0.1414  0.5291  0.1431
  543SOL    HW1 1810   1.948   3.861   0.107  0.2935 -0.4775  0.6094
  543SOL    HW2 1811   2.044   3.750   0.036  0.2495  0.3851 -0.8502
  544SOL     OW 1812   3.385   3.372   0.004 -0.1517  0.8173  0.1334
  544SOL    HW1 1813   3.371   3.467  -0.023 -2.1710  0.0829 -1.7635
  544SOL    HW2 1814   3.367   3.313  -0.074  0.8137 -1.1554  1.3265
  545SOL     OW 1815   1.264   1.606   1.837 -1.0342  0.1124  0.0217
  545SOL    HW1 1816   1.274   1.671   1.761 -0.7380  0.4433  0.3368
  545SOL    HW2 1817   1.252   1.514   1.801 -2.4170  0.4644 -0.4512
  546SOL     OW 1818   0.872   1.790   1.357 -0.0347 -0.3818  0.1166
  546SOL    HW1 1819   0.790   1.832   1.394  0.0497 -0.8865  0.9155
  546SOL    HW2 1820   0.929   1.757   1.433  0.6561 -0.4946 -0.4378
  547SOL     OW 1821   0.078   3.173   0.103  0.2893  0.4863  0.0396
  547SOL    HW1 1822  -0.004   3.117   0.108 -0.1367  1.1786  2.1871
  547SOL    HW2 1823   0.057   3.260   0.058 -0.2849  0.8147  0.9134
  548SOL     OW 1824   2.149   2.918   0.217 -0.6178 -0.2398 -0.6403
  548SOL    HW1 1825   2.082   2.843   0.216  0.7434 -1.5075 -1.1222
  548SOL    HW2 1826   2.186   2.929   0.125 -0.0562  0.3398 -0.3483
  549SOL     OW 1827   2.152   2.244   3.080 -0.4754  0.9018 -0.3266
  549SOL    HW1 1828   2.091   2.234   3.159 -0.0769 -0.2004 -0.1340
  549SOL    HW2 1829   2.171   2.153   3.042  0.1295  1.3357 -1.0871
  550SOL     OW 1830   0.230   2.591   3.999 -0.2965  0.4610 -0.2072
  550SOL    HW1 1831   0.284   2.666   3.962 -1.4774  0.6107 -1.7339
  550SOL    HW2 1832   0.283   2.543   4.069  1.5332  1.0033 -1.1590
  551SOL     OW 1833   2.122   2.268   1.068  0.0890 -0.0179  0.2809
  551SOL    HW1 1834   2.172   2.271   0.981 -0.6808 -1.0216 -0.2143
  551SOL    HW2 1835   2.109   2.362   1.101 -0.9154  0.5277 -1.4752
  552SOL     OW 1836   1.264   2.814   2.572  0.0751  0.1707  0.1318
  552SOL    HW1 1837   1.238   2.908   2.551 -0.0379  0.0198 -0.4118
  552SOL    HW2 1838   1.263   2.759   2.488  0.1808 -0.3072  0.4347
  553SOL     OW 1839   0.086   0.588   2.863  0.0200  0.1358  0.3444
  553SOL    HW1 1840   0.012   0.607   2.799  0.3769 -0.5161 -0.2683
  553SOL    HW2 1841   0.154   0.662   2.859  0.2178 -0.0756 -0.2944
  554SOL     OW 1842   1.951   3.583   3.574 -0.5433 -0.2737 -0.0468
  554SOL    HW1 1843   2.034   3.530   3.556  1.3549  2.5059 -0.0822
  554SOL    HW2 1844   1.887   3.571   3.498  0.1994 -1.7298 -0.4819
  555SOL     OW 1845   0.096   2.832   2.122  0.0144  0.5503  0.0656
  555SOL    HW1 1846   0.103   2.748   2.176 -0.5461  0.7731  0.4975
  555SOL    HW2 1847   0.017   2.825   2.061  0.5428  0.3717 -0.6101
  556SOL     OW 1848   1.650   1.993   3.667  0.2887 -0.1311  0.3575
  556SOL    HW1 1849   1.672   1.897   3.647  0.0494  0.0382 -0.7346
  556SOL    HW2 1850   1.553   2.000   3.689  0.0188  0.0446 -0.8356
  557SOL     OW 1851   3.069   2.828   2.661 -0.2269  0.1429  0.1873
  557SOL    HW1 1852   3.136   2.895   2.629  1.8008 -2.2119 -0.7774
  557SOL    HW2 1853   2.981   2.845   2.617  0.8026  0.8901 -1.6723
  558SOL     OW 1854   3.339   0.305   0.819  0.6406 -0.1491  0.5147
  558SOL    HW1 1855   3.415   0.364   0.847  0.6811 -0.6205  1.3975
  558SOL    HW2 1856   3.292   0.269   0.900 -0.8578  0.5434  0.0032
  559SOL     OW 1857   0.424   3.183   3.557 -0.0697  0.1300  0.0547
  559SOL    HW1 1858   0.436   3.111   3.489  2.0445  0.2958  0.1948
  559SOL    HW2 1859   0.499   3.179   3.622  0.0619  2.4426  0.1017
  560SOL     OW 1860   2.457   4.219   2.108  0.2518 -0.2393  0.1291
  560SOL    HW1 1861   2.520   4.235   2.183  1.4137 -0.7019 -0.7209
  560SOL    HW2 1862   2.505   4.231   2.021  0.0844 -3.5878 -0.5870
  561SOL     OW 1863   2.166   3.515   2.220 -0.1467 -0.6076 -0.2887
  561SOL    HW1 1864   2.102   3.457   2.170  1.9035 -1.1532 -2.4546
  561SOL    HW2 1865   2.173   3.604   2.175 -1.3225  0.4727  1.5179
  562SOL     OW 1866   1.895   4.247   0.167 -0.7754 -0.2991  0.0822
  562SOL    HW1 1867   1.956   4.169   0.171  0.2483  0.4848  0.0459
  562SOL    HW2 1868   1.891   4.281   0.073  0.1353  0.7229  0.3907
  563SOL     OW 1869   2.112   0.006   4.053 -0.3039  0.1850 -0.2661
  563SOL    HW1 1870   2.099  -0.087   4.089  0.5850 -0.4539 -1.4970
  563SOL    HW2 1871   2.171   0.001   3.972  2.2885  2.1345  1.3377
  564SOL     OW 1872   0.396   3.282   1.391 -0.5562  0.2577  0.1324
  564SOL    HW1 1873   0.416   3.314   1.298 -0.9373  0.4994  0.1346
  564SOL    HW2 1874   0.482   3.259   1.437 -0.3669  0.1346 -0.2811
  565SOL     OW 1875   0.162   2.810   3.150 -0.4108 -0.2801 -0.5767
  565SOL    HW1 1876   0.208   2.862   3.222 -0.5974  1.0465 -1.3841
  565SOL    HW2 1877   0.204   2.719   3.143 -0.0605 -0.2428  0.8514
  566SOL     OW 1878   0.657   3.631   3.935 -0.5721  0.2641  0.1437
  566SOL    HW1 1879   0.560   3.650   3.920 -0.4718 -0.0746 -1.0231
  566SOL    HW2 1880   0.708   3.717   3.930 -0.7948  0.4328  0.6844
  567SOL     OW 1881   0.062   2.598   0.925  0.4152  0.1109  0.5706
  567SOL    HW1 1882  -0.036   2.596   0.906  0.4852  0.8358  0.0765
  567SOL    HW2 1883   0.109   2.533   0.866  0.4902  1.4711 -0.9323
  568SOL     OW 1884   3.029   2.509   3.874 -0.1488 -0.6199  0.0498
  568SOL    HW1 1885   3.073   2.516   3.964 -0.5293  0.8148  0.1441
  568SOL    HW2 1886   2.933   2.534   3.882  0.0319  0.4536 -0.9239
  569SOL     OW 1887   0.369   2.330   0.992  0.0898 -0.1171 -0.5932
  569SOL    HW1 1888   0.337   2.393   1.063 -1.6981 -2.3512  0.7346
  569SOL    HW2 1889   0.468   2.335   0.987  0.5184 -1.1054  3.4368
  570SOL     OW 1890   0.014   3.795   2.405  0.3488  0.1502  0.2560
  570SOL    HW1 1891   0.113   3.780   2.404  0.6649  2.0000  0.1662
  570SOL    HW2 1892  -0.030   3.728   2.345  1.6392 -0.1671 -0.3626
  571SOL     OW 1893   3.462   1.286   2.792  0.0562 -0.7901  0.4952
  571SOL    HW1 1894   3.413   1.229   2.726  0.1042 -1.4922  1.0595
  571SOL    HW2 1895   3.445   1.253   2.884  1.6970 -1.1662  0.7068
  572SOL     OW 1896   0.024   3.736   1.282  0.0724  0.1415  0.4019
  572SOL    HW1 1897   0.034   3.639   1.306 -0.4148  0.0341  0.1852
  572SOL    HW2 1898   0.056   3.792   1.358  1.8736 -0.1706 -0.0758
  573SOL     OW 1899   1.293   2.701   0.248 -0.3919  0.0444  0.4996
  573SOL    HW1 1900   1.348   2.740   0.175  1.9140 -0.3098  1.9262
  573SOL    HW2 1901   1.226   2.638   0.210  2.3695 -2.0486 -1.2152
  574SOL     OW 1902   1.117   1.584   2.200  0.1846 -0.2372  0.0602
  574SOL    HW1 1903   1.103   1.659   2.135  0.6080 -0.0494  0.1809
  574SOL    HW2 1904   1.084   1.499   2.160  1.0298 -0.2327 -0.6550
  575SOL     OW 1905   2.847   2.697   0.210  0.1905 -0.1325  0.2160
  575SOL    HW1 1906   2.891   2.653   0.289  0.9087 -1.7001 -0.9930
  575SOL    HW2 1907   2.753   2.663   0.202 -0.4973  1.3960  1.4041
  576SOL     OW 1908   3.455   2.878   0.469 -0.0627 -0.4258 -0.0177
  576SOL    HW1 1909   3.550   2.847   0.476  0.3062  0.7913  0.8174
  576SOL    HW2 1910   3.454   2.978   0.467 -1.1753 -0.4000 -2.6434
  577SOL     OW 1911   1.556   3.362   4.005  0.1418 -0.2591 -0.1873
  577SOL    HW1 1912   1.545   3.279   4.060  0.4645 -0.1250  0.0790
  577SOL    HW2 1913   1.494   3.357   3.927 -0.5472 -0.3067  0.3538
  578SOL     OW 1914   2.683   2.134   1.222 -0.4878  0.4705 -0.0203
  578SOL    HW1 1915   2.593   2.171   1.197 -1.8856 -0.6515  2.8783
  578SOL    HW2 1916   2.735   2.116   1.139 -2.3650  2.4519 -1.7650
  579SOL     OW 1917   0.916   4.079   2.450 -0.4211 -0.3787  0.0349
  579SOL    HW1 1918   0.942   4.005   2.513 -0.0275  0.7993  1.3165
  579SOL    HW2 1919   0.885   4.158   2.504 -3.0213 -0.3716 -1.3444
  580SOL     OW 1920   2.189   2.443   0.017 -0.1467 -0.4380  0.2143
  580SOL    HW1 1921   2.224   2.500  -0.058 -3.8167 -0.3032 -1.6196
  580SOL    HW2 1922   2.247   2.362   0.027  0.9472 -0.0358 -2.2315
  581SOL     OW 1923   0.316   0.508   3.746  0.2061 -0.8654  0.6478
  581SOL    HW1 1924   0.309   0.547   3.654 -0.5754 -2.6805 -0.1064
  581SOL    HW2 1925   0.264   0.566   3.810  2.7345  1.7989  0.5219
  582SOL     OW 1926   4.190   1.052   1.892  0.0585  0.2399  0.0697
  582SOL    HW1 1927   4.165   0.965   1.934  4.2528 -0.5014  1.4747
  582SOL    HW2 1928   4.146   1.126   1.942 -0.3831 -0.9139  1.4534
  583SOL     OW 1929   2.785   2.970   0.159 -0.4070 -0.1269  0.2102
  583SOL    HW1 1930   2.870   2.988   0.108  0.0774  0.1776  1.1070
  583SOL    HW2 1931   2.783   2.874   0.186 -1.1857 -0.5657 -1.2958
  584SOL     OW 1932   4.181   2.528   2.064  0.2070  0.4086 -0.8400
  584SOL    HW1 1933   4.141   2.616   2.039  0.3157  0.6734 -0.1300
  584SOL    HW2 1934   4.240   2.541   2.144 -1.2986 -0.6315  0.5095
  585SOL     OW 1935   3.175   3.135   1.972  0.3384  0.1073 -0.5083
  585SOL    HW1 1936   3.120   3.197   2.028  1.3765 -0.1534  0.8507
  585SOL    HW2 1937   3.115   3.068   1.929 -0.5153  0.4647  0.0921
  586SOL     OW 1938   1.887   3.196   2.383  0.0724  0.2288 -0.1398
  586SOL    HW1 1939   1.928   3.222   2.296  1.3080  3.6202  1.2865
  586SOL    HW2 1940   1.799   3.242   2.392  0.1904  0.3164  0.6042
  587SOL     OW 1941   0.655   2.342   0.996  0.0695  0.1538 -0.2688
  587SOL    HW1 1942   0.668   2.415   1.063 -1.9065 -0.3255  0.7326
  587SOL    HW2 1943   0.688   2.256   1.034  0.2395  0.1266 -0.4801
  588SOL     OW 1944   0.589   1.488   1.860 -0.1844  0.3859 -0.2581
  588SOL    HW1 1945   0.633   1.454   1.777 -0.4175  0.3935 -0.3850
  588SOL    HW2 1946   0.588   1.588   1.858  1.5467  0.4611  0.6525
  589SOL     OW 1947   3.564   2.314   1.516 -0.5467 -0.0059 -0.5893
  589SOL    HW1 1948   3.543   2.217   1.507  0.6450 -0.3186 -0.1743
  589SOL    HW2 1949   3.660   2.330   1.495 -0.8867  1.2099 -1.3787
  590SOL     OW 1950   1.387   3.244   2.897  0.5279  0.1732 -0.2089
  590SOL    HW1 1951   1.464   3.181   2.898  0.2440 -0.1886  1.5824
  590SOL    HW2 1952   1.304   3.195   2.923  0.2579  1.2216  0.9737
  591SOL     OW 1953   1.844   3.452   3.996  0.5597 -0.0639  0.0649
  591SOL    HW1 1954   1.752   3.432   3.962  1.3968 -2.3118 -1.1045
  591SOL    HW2 1955   1.843   3.450   4.096 -1.1602  2.7891  0.2100
  592SOL     OW 1956   3.859   2.627   1.775 -0.4704  0.3080  0.1825
  592SOL    HW1 1957   3.851   2.688   1.696  0.5673 -0.1779 -0.3180
  592SOL    HW2 1958   3.776   2.573   1.784 -0.5140  0.2273 -0.6987
  593SOL     OW 1959   0.668   2.215   3.043  0.3339 -0.4080  0.0294
  593SOL    HW1 1960   0.689   2.299   3.092 -0.2230 -1.0195  1.3486
  593SOL    HW2 1961   0.621   2.152   3.104  1.4990 -2.0350 -0.6817
  594SOL     OW 1962   2.950   3.522   1.938  0.3940 -0.4223 -0.2376
  594SOL    HW1 1963   2.975   3.466   2.017  0.2641 -0.1217  0.0193
  594SOL    HW2 1964   2.955   3.467   1.855  0.6137 -0.7173 -0.0284
  595SOL     OW 1965   1.207   2.494   2.951  0.2008  0.3169 -0.2502
  595SOL    HW1 1966   1.205   2.402   2.912  0.1439  0.0643  0.3452
  595SOL    HW2 1967   1.276   2.498   3.023 -1.5278  0.0065  1.5030
  596SOL     OW 1968   3.825   2.454   0.817 -0.1751  0.5138  0.1604
  596SOL    HW1 1969   3.775   2.538   0.796  0.3330  0.6036 -0.7582
  596SOL    HW2 1970   3.775   2.402   0.887 -0.1210  1.9091  1.2600
  597SOL     OW 1971   3.884   2.558   0.442  0.1339 -0.4345  0.1751
  597SOL    HW1 1972   3.931   2.509   0.515  2.4218 -1.5155 -1.8698
  597SOL    HW2 1973   3.835   2.492   0.385 -1.7863  0.4099  0.7533
  598SOL     OW 1974   3.809   0.268   0.999 -0.0761  0.5246 -0.0368
  598SOL    HW1 1975   3.820   0.170   1.015 -2.4858  0.2985  0.5854
  598SOL    HW2 1976   3.887   0.317   1.039  0.8703 -1.0870  0.1442
  599SOL     OW 1977   1.064   2.761   1.845  0.3115 -1.1370  0.1672
  599SOL    HW1 1978   1.105   2.671   1.830 -1.3087 -1.8712 -0.0460
  599SOL    HW2 1979   0.989   2.774   1.780 -0.6498 -0.3984  1.3780
  600SOL     OW 1980   2.425   2.908   1.746  0.3740  0.5985 -0.2467
  600SOL    HW1 1981   2.463   2.927   1.655  0.4921  0.5887 -0.2000
  600SOL    HW2 1982   2.497   2.920   1.814  1.2341 -2.6688 -0.4186
  601SOL     OW 1983   3.055   2.978   0.050  0.0462 -0.2782 -0.4717
  601SOL    HW1 1984   3.085   3.006  -0.041 -1.4804 -0.4113 -1.0403
  601SOL    HW2 1985   3.084   2.883   0.067  0.5246 -0.1774 -0.7203
  602SOL     OW 1986   0.382   0.336   0.909  0.0544  0.5324  0.3260
  602SOL    HW1 1987   0.294   0.382   0.923 -0.2947  0.7773 -2.1716
  602SOL    HW2 1988   0.452   0.379   0.966 -1.1321  1.2736  1.2668
  603SOL     OW 1989   0.934   2.379   1.585 -0.4948 -0.5613  1.0294
  603SOL    HW1 1990   0.998   2.310   1.550 -1.6158 -0.7071 -0.8659
  603SOL    HW2 1991   0.937   2.378   1.685  1.0268 -1.8994  1.0234
  604SOL     OW 1992   2.807   2.851   2.870  0.3133  0.0525  0.2392
  604SOL    HW1 1993   2.874   2.851   2.944  0.7260 -0.7128 -0.1145
  604SOL    HW2 1994   2.798   2.943   2.832  1.2821  0.1361  0.1954
  605SOL     OW 1995   0.157   1.794   2.453  0.2272  0.9259  0.4146
  605SOL    HW1 1996   0.117   1.858   2.388  2.4585  1.3890 -0.5888
  605SOL    HW2 1997   0.209   1.724   2.403  2.3597  1.5418  1.6485
  606SOL     OW 1998   3.826   0.180   2.381 -0.4774  1.0889 -0.4151
  606SOL    HW1 1999   3.832   0.224   2.470  1.5659 -2.4770  1.4373
  606SOL    HW2 2000   3.890   0.224   2.318  0.6887  1.4820  0.9904
  607SOL     OW 2001   1.820   3.582   1.482 -0.7853  0.0010 -0.7654
  607SOL    HW1 2002   1.772   3.669   1.469 -1.4692 -0.2067  0.2448
  607SOL    HW2 2003   1.753   3.508   1.491 -0.2286 -0.5148 -0.7633
  608SOL     OW 2004   1.430   2.763   0.005 -0.1053  0.0733  0.5373
  608SOL    HW1 2005   1.379   2.739  -0.078 -0.5027  4.2525 -0.6778
  608SOL    HW2 2006   1.500   2.694   0.022 -0.6980 -1.5035 -2.6207
  609SOL     OW 2007   3.344   0.088   3.019 -0.1532  0.4186  0.1203
  609SOL    HW1 2008   3.287   0.029   2.963 -0.5384  1.5775 -0.7358
  609SOL    HW2 2009   3.438   0.054   3.017 -0.2150  0.2783 -1.0113
  610SOL     OW 2010   1.069   1.805   2.038  0.0596 -0.1331  0.1058
  610SOL    HW1 2011   1.035   1.876   2.099 -0.1181 -1.4300  1.5723
  610SOL    HW2 2012   1.100   1.847   1.952 -0.1004  1.6734  0.8987
  611SOL     OW 2013   3.935   1.913   2.082 -0.3673 -0.5148  0.0782
  611SOL    HW1 2014   3.966   1.896   2.176  2.8408 -2.3889 -1.1512
  611SOL    HW2 2015   3.996   1.980   2.040 -1.4394 -0.1120 -0.8707
  612SOL     OW 2016   4.130   1.670   1.546 -0.3268 -0.0366  0.2168
  612SOL    HW1 2017   4.069   1.735   1.591 -0.9742 -0.6376  0.2221
  612SOL    HW2 2018   4.162   1.603   1.613  0.5170  0.3908  0.2605
  613SOL     OW 2019   3.921   1.943   1.175  0.1120 -0.1808 -0.1195
  613SOL    HW1 2020   3.823   1.965   1.173  0.2287  0.7505  2.0591
  613SOL    HW2 2021   3.965   1.985   1.096 -1.1078  0.0861 -0.6884
  614SOL     OW 2022   0.704   2.444   3.199 -0.4120  0.6983 -0.2382
  614SOL    HW1 2023   0.788   2.492   3.175 -0.3037  0.5422 -0.1679
  614SOL    HW2 2024   0.707   2.418   3.296 -0.5620  0.7376 -0.2227
  615SOL     OW 2025   1.578   0.950   0.593 -0.8415  0.8929  0.2827
  615SOL    HW1 2026   1.542   0.859   0.572 -0.3572  0.5931  0.7223
  615SOL    HW2 2027   1.512   1.000   0.649 -1.4378  1.0992 -0.5820
  616SOL     OW 2028   0.072   0.829   2.386 -0.0389 -0.0532 -0.8001
  616SOL    HW1 2029   0.080   0.875   2.297  0.8815 -0.2906 -0.8463
  616SOL    HW2 2030  -0.018   0.850   2.425  0.4718  2.1123 -0.6509
  617SOL     OW 2031   3.722   3.014   0.157 -0.8153  1.0153 -0.1967
  617SOL    HW1 2032   3.658   2.938   0.159  0.7472 -0.4186 -1.7454
  617SOL    HW2 2033   3.736   3.048   0.250  0.2543 -2.2121  0.9731
  618SOL     OW 2034   2.551   3.945   0.991  0.2011 -0.4071 -0.0535
  618SOL    HW1 2035   2.481   3.874   0.990  0.1545 -0.4943 -3.7794
  618SOL    HW2 2036   2.638   3.904   1.019 -0.3249 -1.3495  0.2449
  619SOL     OW 2037   2.120   2.256   3.577  0.0579 -0.1367 -0.3905
  619SOL    HW1 2038   2.170   2.342   3.567 -0.1834  0.0254 -0.1936
  619SOL    HW2 2039   2.044   2.254   3.512 -0.1767 -0.0293 -0.1202
  620SOL     OW 2040   1.575   2.975   0.480 -0.2368  0.4807 -0.7743
  620SOL    HW1 2041   1.599   3.029   0.560  0.9065 -0.0447 -0.7527
  620SOL    HW2 2042   1.611   3.021   0.398  1.0569 -0.3964 -0.7247
  621SOL     OW 2043   1.251   2.006   2.917 -0.7081  0.2349 -0.0396
  621SOL    HW1 2044   1.295   1.921   2.888 -0.8274  0.0630  0.2784
  621SOL    HW2 2045   1.182   1.985   2.986  0.6943  0.7888  1.5980
  622SOL     OW 2046   0.286   3.788   2.374 -0.2125  0.0914 -0.8656
  622SOL    HW1 2047   0.314   3.707   2.323 -1.6664 -0.4880 -0.8041
  622SOL    HW2 2048   0.365   3.826   2.422  1.2719  0.7734 -3.6380
  623SOL     OW 2049   3.987   1.710   1.269 -0.4568 -0.5032 -0.2265
  623SOL    HW1 2050   4.034   1.697   1.356  1.9006 -0.8176 -1.4749
  623SOL    HW2 2051   3.990   1.807   1.244 -0.1090 -0.5820 -0.4959
  624SOL     OW 2052   2.957   0.961   0.295 -0.1222 -0.1653 -0.7632
  624SOL    HW1 2053   3.039   0.999   0.250  0.3217 -0.3428 -0.1183
  624SOL    HW2 2054   2.878   0.974   0.235  0.0427  1.5997 -0.6535
  625SOL     OW 2055   3.672   1.867   3.181 -0.2417  0.1963 -0.2032
  625SOL    HW1 2056   3.668   1.947   3.242 -0.8267  0.8169 -1.0272
  625SOL    HW2 2057   3.652   1.897   3.087 -0.1804 -0.8806 -0.5663
  626SOL     OW 2058   2.861   3.290   1.149  0.3955  0.7561 -0.0206
  626SOL    HW1 2059   2.770   3.325   1.172  0.5323  0.6853  0.6309
  626SOL    HW2 2060   2.857   3.191   1.138  1.0731  0.1750  3.6897
  627SOL     OW 2061   0.175   0.687   3.912  0.1364  0.4103 -0.5893
  627SOL    HW1 2062   0.086   0.729   3.894 -1.0122 -1.1052  1.1749
  627SOL    HW2 2063   0.220   0.737   3.987  0.5479  0.8481 -1.1208
  628SOL     OW 2064   0.994   2.010   2.185  0.0782 -0.4104  0.1296
  628SOL    HW1 2065   1.010   2.108   2.194 -1.1171 -0.3049  1.4573
  628SOL    HW2 2066   0.898   1.990   2.205  0.1140 -1.7706 -0.8876
  629SOL     OW 2067   3.059   2.035   2.709  0.0476 -0.1390  0.4928
  629SOL    HW1 2068   2.979   2.019   2.767  0.6469 -0.7189  1.1933
  629SOL    HW2 2069   3.034   2.019   2.614 -0.3461 -1.6773  0.8217
  630SOL     OW 2070   2.366   3.124   2.440 -0.4870 -0.2488 -0.0104
  630SOL    HW1 2071   2.367   3.175   2.354 -1.9614 -0.5229 -0.2180
  630SOL    HW2 2072   2.367   3.188   2.516 -0.6703  0.0419 -0.2503
  631SOL     OW 2073   3.978   1.389   0.925  0.2742  0.6906 -0.1702
  631SOL    HW1 2074   4.014   1.476   0.959  1.4556  0.4404 -0.7049
  631SOL    HW2 2075   3.886   1.376   0.959 -0.0660  2.3287 -0.3676
  632SOL     OW 2076   2.847   1.996   2.885  0.2332  0.3916 -0.0157
  632SOL    HW1 2077   2.813   1.906   2.910  0.6471  0.2574  0.0609
  632SOL    HW2 2078   2.848   2.055   2.966 -0.5638  0.6430 -0.1694
  633SOL     OW 2079   1.477   3.840   1.931 -0.1623  0.3882  0.1559
  633SOL    HW1 2080   1.574   3.817   1.919  0.1499 -0.7250  3.7858
  633SOL    HW2 2081   1.421   3.771   1.885  0.6617  1.2537 -2.3174
  634SOL     OW 2082   2.226   3.738   2.076  0.1229 -0.3334  0.4983
  634SOL    HW1 2083   2.165   3.774   2.006 -0.1481  0.2255  1.0056
  634SOL    HW2 2084   2.272   3.814   2.122 -0.2024 -0.6440  1.3621
  635SOL     OW 2085   3.784   3.012   1.322  0.2534 -0.6995 -0.1787
  635SOL    HW1 2086   3.806   3.102   1.285  0.0117 -0.2460  0.7425
  635SOL    HW2 2087   3.689   2.989   1.301  0.0214 -0.3052  0.4038
  636SOL     OW 2088   4.158   3.889   1.095  0.4757  0.1072 -0.3636
  636SOL    HW1 2089   4.205   3.907   1.009  0.5743  0.8127 -0.1704
  636SOL    HW2 2090   4.208   3.819   1.146  1.6312  1.2056  0.0698
  637SOL     OW 2091   2.787   3.619   1.716 -0.0685  0.2009  1.2232
  637SOL    HW1 2092   2.829   3.593   1.803 -1.3553  0.0986  1.8359
  637SOL    HW2 2093   2.698   3.662   1.734 -0.8970 -0.8889 -0.0876
  638SOL     OW 2094   2.444   0.946   0.543 -0.2036 -0.1910  0.0011
  638SOL    HW1 2095   2.449   0.876   0.471  0.7603  0.5743 -0.7014
  638SOL    HW2 2096   2.506   1.021   0.520 -2.0046  1.4137  0.1907
  639SOL     OW 2097   1.841   2.169   3.628  0.1117  0.0234 -0.5526
  639SOL    HW1 2098   1.936   2.140   3.621 -0.3008 -1.5606  0.1770
  639SOL    HW2 2099   1.782   2.089   3.636 -1.0080  1.0261  2.3692
  640SOL     OW 2100   1.776   2.600   0.363  0.1289  1.3176 -0.0785
  640SOL    HW1 2101   1.710   2.541   0.317  1.4124 -0.3978  0.1943
  640SOL    HW2 2102   1.728   2.663   0.424 -1.2303  0.0362  0.2079
  641SOL     OW 2103   0.330   2.681   2.597  0.7663  0.3891  0.4954
  641SOL    HW1 2104   0.233   2.703   2.604  0.3524 -0.5382 -1.4746
  641SOL    HW2 2105   0.375   2.700   2.684 -0.8099  2.5326  0.9107
  642SOL     OW 2106   3.982   0.511   2.759 -1.2248  0.4118  0.5058
  642SOL    HW1 2107   4.046   0.586   2.744 -1.7979  0.5858 -1.3542
  642SOL    HW2 2108   4.032   0.433   2.797 -0.4166  1.3560  1.4287
  643SOL     OW 2109   2.095   0.126   3.415 -0.3648  0.4248 -0.3205
  643SOL    HW1 2110   2.069   0.043   3.463 -0.3605  0.9318  0.5763
  643SOL    HW2 2111   2.140   0.189   3.478  0.2383  0.8465 -1.1363
  644SOL     OW 2112   2.872   1.572   2.580  0.5797  0.5508 -0.5950
  644SOL    HW1 2113   2.915   1.483   2.564  0.5470  0.7418 -1.8271
  644SOL    HW2 2114   2.908   1.610   2.665  1.7411  0.0368 -0.8293
  645SOL     OW 2115   2.167   3.363   0.286 -0.4345  0.2062  0.9472
  645SOL    HW1 2116   2.170   3.319   0.195 -1.8032  0.1628  0.9067
  645SOL    HW2 2117   2.211   3.302   0.352  0.1784  0.0340  0.3989
  646SOL     OW 2118   2.840   1.733   2.347 -0.6306 -0.3986  0.4866
  646SOL    HW1 2119   2.871   1.671   2.419 -2.0961 -0.5920  0.9790
  646SOL    HW2 2120   2.863   1.827   2.373 -1.3562 -0.4427  1.3348
  647SOL     OW 2121   2.738   3.313   2.048 -0.0156  0.2074 -0.2841
  647SOL    HW1 2122   2.833   3.315   2.081 -0.0996 -0.9440  0.0603
  647SOL    HW2 2123   2.686   3.247   2.101 -1.3529  1.7200  0.3710
  648SOL     OW 2124   2.429   3.574   2.003  0.6245 -0.4106 -0.3378
  648SOL    HW1 2125   2.367   3.650   2.020 -1.5377 -2.2482  0.3951
  648SOL    HW2 2126   2.507   3.581   2.066 -1.0148 -0.3336  1.8134
  649SOL     OW 2127   3.677   2.681   0.819  0.0198  0.1419 -0.7887
  649SOL    HW1 2128   3.674   2.704   0.721  0.6042  0.9544 -0.6284
  649SOL    HW2 2129   3.583   2.675   0.853 -0.1869  0.3619 -1.2944
  650SOL     OW 2130   2.561   1.565   3.135  0.4313 -0.1821  0.1590
  650SOL    HW1 2131   2.502   1.510   3.075  0.1287 -0.0468  0.3319
  650SOL    HW2 2132   2.623   1.504   3.184 -1.1885 -0.6069  1.8129
  651SOL     OW 2133   2.014   0.489   0.978  0.4828 -0.2931  0.2602
  651SOL    HW1 2134   2.077   0.565   0.964 -1.1945  1.7945  3.0649
  651SOL    HW2 2135   1.969   0.467   0.891  0.0438  2.8828 -0.4088
  652SOL     OW 2136   0.476   2.567   2.392  0.6201 -0.0251 -0.0213
  652SOL    HW1 2137   0.535   2.500   2.438 -0.0121 -1.0335 -0.6391
  652SOL    HW2 2138   0.421   2.615   2.460  1.0652 -0.1390  0.4265
  653SOL     OW 2139   2.829   3.075   3.674 -0.1299 -0.3404  0.7751
  653SOL    HW1 2140   2.807   2.980   3.654 -0.7944  0.0938 -0.7380
  653SOL    HW2 2141   2.885   3.112   3.599  0.3567  0.3790  1.4781
  654SOL     OW 2142   0.094   2.524   1.379  0.0292  0.4884  0.6454
  654SOL    HW1 2143   0.088   2.435   1.424  3.1749 -0.8797 -1.3113
  654SOL    HW2 2144   0.042   2.522   1.294 -0.8313  0.9875  1.1340
  655SOL     OW 2145   0.193   3.570   3.158 -0.1313  0.1777 -0.1554
  655SOL    HW1 2146   0.272   3.623   3.124  1.1477 -2.0042 -0.7999
  655SOL    HW2 2147   0.190   3.483   3.110 -1.1319 -1.0705  2.0499
  656SOL     OW 2148   0.902   2.481   0.859 -0.0935 -0.0629  0.1058
  656SOL    HW1 2149   0.902   2.567   0.810  0.4173 -0.7476 -1.1323
  656SOL    HW2 2150   0.808   2.447   0.866 -0.2316  0.3118  0.1087
  657SOL     OW 2151   0.254   3.765   1.996  0.1234  0.2789  0.0047
  657SOL    HW1 2152   0.227   3.839   2.057  0.3479 -0.0416  0.4962
  657SOL    HW2 2153   0.272   3.683   2.050 -3.6965 -1.2681 -0.7415
  658SOL     OW 2154   0.314   3.272   2.174 -0.0702 -0.6635  0.0057
  658SOL    HW1 2155   0.304   3.179   2.208  0.3629 -0.5157  0.5615
  658SOL    HW2 2156   0.252   3.286   2.097 -3.1013 -0.2004  2.3655
  659SOL     OW 2157   0.362   3.189   1.884 -0.2320  0.4472  0.2104
  659SOL    HW1 2158   0.276   3.140   1.871  0.2977  0.0663 -2.3495
  659SOL    HW2 2159   0.427   3.128   1.930 -0.9198  0.2878  0.9832
  660SOL     OW 2160   2.412   1.343   2.998  0.0666  0.2164 -0.3171
  660SOL    HW1 2161   2.332   1.297   2.959  0.0907  0.0679 -0.1922
  660SOL    HW2 2162   2.486   1.277   3.011 -0.1340  0.1384  0.5097
  661SOL     OW 2163   2.596   2.601   0.256 -0.1436  0.1095 -0.1597
  661SOL    HW1 2164   2.549   2.685   0.230  0.4415  0.5023  0.0266
  661SOL    HW2 2165   2.569   2.576   0.349  1.3163  1.3246  0.6570
  662SOL     OW 2166   4.179   3.814   2.685  0.1120  0.6166  0.5015
  662SOL    HW1 2167   4.178   3.833   2.587  0.7963 -0.8179  0.1889
  662SOL    HW2 2168   4.097   3.763   2.710  0.7845 -0.6018  0.3047
  663SOL     OW 2169   2.467   4.017   2.857 -0.5220 -0.0550 -0.9676
  663SOL    HW1 2170   2.499   3.926   2.882  0.6124  0.3690 -0.8488
  663SOL    HW2 2171   2.464   4.025   2.757  0.6060  0.1830 -0.9959
  664SOL     OW 2172   1.780   2.728   3.069 -0.2143 -0.3672  0.3467
  664SOL    HW1 2173   1.784   2.628   3.069  1.6733 -0.3275 -0.0926
  664SOL    HW2 2174   1.871   2.765   3.052 -0.5959  1.4598  1.8513
  665SOL     OW 2175   2.026   2.987   2.001  0.3598  0.2819 -0.0893
  665SOL    HW1 2176   1.982   2.988   2.091  0.4276 -1.7277  0.0271
  665SOL    HW2 2177   1.957   2.975   1.930  0.2053  2.8404 -0.4388
  666SOL     OW 2178   2.321   2.315   0.845  0.1025 -0.5903  0.6527
  666SOL    HW1 2179   2.363   2.392   0.892  0.2012 -1.0035  1.2562
  666SOL    HW2 2180   2.359   2.229   0.881  0.1831 -0.9178 -0.1849
  667SOL     OW 2181   2.510   2.425   3.576  0.3803  0.1019 -0.4652
  667SOL    HW1 2182   2.416   2.427   3.542 -0.1218  2.2974  0.8122
  667SOL    HW2 2183   2.572   2.449   3.502 -0.1122 -0.8338 -1.1930
  668SOL     OW 2184   3.220   0.174   1.011 -0.2815  0.0991 -0.2668
  668SOL    HW1 2185   3.193   0.108   0.941  0.4673 -1.3401  0.7286
  668SOL    HW2 2186   3.159   0.166   1.090  0.6694 -0.4819  0.4487
  669SOL     OW 2187   0.940   2.715   0.702  0.2740 -0.3953 -0.1946
  669SOL    HW1 2188   0.947   2.765   0.788  1.8943  0.1669 -0.6135
  669SOL    HW2 2189   0.917   2.779   0.628 -1.8431 -0.9832 -0.1188
  670SOL     OW 2190   0.169   3.729   2.807 -0.1966  0.2982  0.0540
  670SOL    HW1 2191   0.120   3.737   2.894 -0.2161  0.5922  0.0160
  670SOL    HW2 2192   0.112   3.764   2.733  0.5601  1.9191  0.1803
  671SOL     OW 2193   3.309   2.010   3.046  0.2067  0.5546 -0.2759
  671SOL    HW1 2194   3.243   1.947   3.006  0.3796  0.1435  0.0677
  671SOL    HW2 2195   3.399   1.991   3.007  0.4757 -0.2005  0.6572
  672SOL     OW 2196   0.457   3.664   3.093  0.0910 -0.0194  0.2858
  672SOL    HW1 2197   0.523   3.736   3.113 -1.2078  1.2938  0.0005
  672SOL    HW2 2198   0.495   3.576   3.121  1.5169  0.8224  1.1138
  673SOL     OW 2199   3.533   0.441   2.702 -0.5546  0.3368  0.3360
  673SOL    HW1 2200   3.604   0.466   2.768 -0.2967  0.3916  0.0389
  673SOL    HW2 2201   3.444   0.462   2.741 -0.3656  1.2364  0.2976
  674SOL     OW 2202   2.852   3.033   1.521  0.0161 -0.0804  0.0055
  674SOL    HW1 2203   2.917   2.994   1.586  1.4803 -0.6306 -1.7097
  674SOL    HW2 2204   2.889   3.117   1.483 -0.7057  0.1027 -0.3140
  675SOL     OW 2205   2.519   1.792   0.725  0.2062  0.0609  0.4531
  675SOL    HW1 2206   2.430   1.747   0.728  0.2294  0.0386  0.9067
  675SOL    HW2 2207   2.509   1.885   0.759  0.3116  0.1400  0.2690
  676SOL     OW 2208   1.493   1.439   4.089 -0.2797  0.0520  0.7642
  676SOL    HW1 2209   1.394   1.451   4.090 -0.5612 -1.8044  2.6723
  676SOL    HW2 2210   1.518   1.365   4.152  2.3532  0.6205  0.5139
  677SOL     OW 2211   2.250   2.678   2.119 -0.0015 -0.1148  0.2175
  677SOL    HW1 2212   2.231   2.717   2.028 -0.4842  1.0849  0.8183
  677SOL    HW2 2213   2.331   2.722   2.157 -0.9718  0.8694  1.2118
  678SOL     OW 2214   2.505   0.162   3.559 -0.3267  0.1310  0.0551
  678SOL    HW1 2215   2.503   0.063   3.573 -3.2481  0.0706 -0.2579
  678SOL    HW2 2216   2.533   0.180   3.464 -1.6978 -0.5259 -0.5031
  679SOL     OW 2217   1.669   1.728   3.599  0.5079  0.2389  0.1829
  679SOL    HW1 2218   1.580   1.702   3.560  0.6734  0.5491 -0.4246
  679SOL    HW2 2219   1.740   1.673   3.556  0.4713 -1.2717  1.9283
  680SOL     OW 2220   1.743   2.236   3.204 -0.0972  0.0686  0.1288
  680SOL    HW1 2221   1.776   2.152   3.160 -0.4587  0.4948 -0.9938
  680SOL    HW2 2222   1.664   2.214   3.262  1.0145 -0.6639  1.4189
  681SOL     OW 2223   0.659   3.289   0.300  0.3549  0.1873 -0.0401
  681SOL    HW1 2224   0.564   3.315   0.316  0.8434  0.3587  3.0295
  681SOL    HW2 2225   0.710   3.370   0.270 -0.2829  0.2454 -1.0276
  682SOL     OW 2226   3.669   3.638   2.357  0.3706 -0.5246 -0.1236
  682SOL    HW1 2227   3.744   3.699   2.331  0.9867 -0.5415  1.4907
  682SOL    HW2 2228   3.625   3.674   2.439  0.2370 -1.8528  0.4090
  683SOL     OW 2229   1.260   2.712   2.294 -0.2437  0.1052 -0.3211
  683SOL    HW1 2230   1.219   2.625   2.323 -0.6619 -0.4670 -2.4561
  683SOL    HW2 2231   1.357   2.697   2.274 -0.2032  0.2433 -0.2276
  684SOL     OW 2232   2.462   2.379   3.156 -0.1665 -0.1990 -0.0198
  684SOL    HW1 2233   2.553   2.362   3.118 -0.9316 -0.5732 -1.7974
  684SOL    HW2 2234   2.412   2.292   3.162 -0.9730  0.2142 -0.6246
  685SOL     OW 2235   0.470   2.625   3.261 -0.1890  0.0763  0.2687
  685SOL    HW1 2236   0.541   2.557   3.249 -0.3197  0.1341 -0.9174
  685SOL    HW2 2237   0.388   2.597   3.211 -0.2059  1.1422 -0.3277
  686SOL     OW 2238   3.034   1.359   0.426  0.6246  0.1437  0.3662
  686SOL    HW1 2239   3.019   1.264   0.453  3.0198 -0.2267  0.6133
  686SOL    HW2 2240   2.966   1.418   0.471 -1.5538 -1.4980 -0.5943
  687SOL     OW 2241   2.656   4.063   0.789  1.0435  0.7504 -0.1874
  687SOL    HW1 2242   2.627   3.996   0.721 -0.8044  1.2816  0.0189
  687SOL    HW2 2243   2.621   4.035   0.879  0.8336  1.6463  0.0111
  688SOL     OW 2244   1.369   3.264   1.123  0.0801 -0.3424  0.1114
  688SOL    HW1 2245   1.287   3.216   1.092  0.1809 -0.7721  0.5119
  688SOL    HW2 2246   1.418   3.301   1.044 -0.3193 -0.3739 -0.1507
  689SOL     OW 2247   0.322   2.217   2.278 -0.2388 -0.0405  0.4019
  689SOL    HW1 2248   0.355   2.173   2.194 -1.1265 -0.1834  0.1253
  689SOL    HW2 2249   0.298   2.312   2.258 -0.7244 -0.1582  0.4323
  690SOL     OW 2250   2.396   3.275   2.223  0.0397  0.0639 -0.3379
  690SOL    HW1 2251   2.386   3.373   2.241  1.5028  0.2792 -0.5507
  690SOL    HW2 2252   2.337   3.249   2.147 -1.4688  0.4555  0.6528
  691SOL     OW 2253   0.312   2.486   2.211  0.1206 -0.0591  0.0149
  691SOL    HW1 2254   0.389   2.520   2.266 -0.0671 -0.3373  0.4603
  691SOL    HW2 2255   0.325   2.514   2.116  1.2478 -0.8734 -0.0968
  692SOL     OW 2256   3.782   1.973   1.477 -0.2013 -0.4268 -0.2811
  692SOL    HW1 2257   3.719   1.979   1.399  1.0305 -1.0567 -1.3697
  692SOL    HW2 2258   3.852   2.045   1.468  1.1901 -1.8055 -0.9508
  693SOL     OW 2259   1.049   1.372   3.791  0.2017  1.0825 -0.2159
  693SOL    HW1 2260   0.964   1.423   3.797  0.6363  1.7540  0.4719
  693SOL    HW2 2261   1.029   1.275   3.777 -0.6284  1.5657 -2.9652
  694SOL     OW 2262   2.775   2.683   2.670 -0.4661  0.6668  0.6909
  694SOL    HW1 2263   2.795   2.734   2.754  0.9638  0.1500  0.6865
  694SOL    HW2 2264   2.844   2.612   2.657 -0.5028  0.9113 -1.0817
  695SOL     OW 2265   1.624   3.169   0.674  0.9979 -0.0455  0.7234
  695SOL    HW1 2266   1.560   3.155   0.749 -0.2456  1.5877  0.0238
  695SOL    HW2 2267   1.693   3.236   0.700  1.6534 -0.8271  1.0212
  696SOL     OW 2268   2.787   2.074   0.950 -0.2505 -0.3618  0.3972
  696SOL    HW1 2269   2.821   1.994   0.900 -1.3595 -0.6766  0.1234
  696SOL    HW2 2270   2.729   2.129   0.889  1.3169  1.2375  0.2562
  697SOL     OW 2271   0.317   2.479   1.235 -0.0286  0.0414 -0.0065
  697SOL    HW1 2272   0.234   2.476   1.290  0.0988  0.0061  0.1849
  697SOL    HW2 2273   0.389   2.426   1.280  0.3810  0.8326  0.2976
  698SOL     OW 2274   2.579   2.048   4.223 -0.1639 -0.4929 -0.2940
  698SOL    HW1 2275   2.593   2.035   4.124 -2.2512 -1.3219 -0.5249
  698SOL    HW2 2276   2.626   2.132   4.251  2.8964 -1.6787 -1.3691
  699SOL     OW 2277   2.873   4.136   2.183  0.3175  0.6583  0.5023
  699SOL    HW1 2278   2.830   4.069   2.124  0.6425  0.3561  0.6029
  699SOL    HW2 2279   2.968   4.150   2.153  0.0234  1.6497 -0.0013
  700SOL     OW 2280   1.283   1.660   2.448 -0.0155 -0.2748  0.2194
  700SOL    HW1 2281   1.331   1.587   2.400 -0.2787 -1.0576  1.1157
  700SOL    HW2 2282   1.259   1.732   2.382  2.3878  0.1876 -0.2457
  701SOL     OW 2283   0.250   0.352   1.769 -0.2555 -0.3234  0.7413
  701SOL    HW1 2284   0.209   0.264   1.743 -1.4481 -0.3208  2.4414
  701SOL    HW2 2285   0.276   0.402   1.687 -1.4987 -1.3695 -0.3331
  702SOL     OW 2286   3.296   0.506   0.613  0.2418  0.1730 -0.4677
  702SOL    HW1 2287   3.287   0.592   0.664 -0.7624  0.4656 -1.0982
  702SOL    HW2 2288   3.337   0.437   0.671 -0.8190  0.5119  0.7307
  703SOL     OW 2289   0.962   1.828   2.656 -0.0442  0.2617 -0.3874
  703SOL    HW1 2290   0.915   1.787   2.578 -1.3717 -1.9881  1.4717
  703SOL    HW2 2291   1.039   1.770   2.682  0.2823  0.9026  0.0938
  704SOL     OW 2292   3.076   2.703   0.073 -0.3781 -0.5622  0.0947
  704SOL    HW1 2293   2.984   2.722   0.107 -0.3889  1.1640 -0.7855
  704SOL    HW2 2294   3.136   2.680   0.150 -1.2630 -0.4958  0.8182
  705SOL     OW 2295   1.197   1.048   0.447 -0.1955 -0.2723  0.3801
  705SOL    HW1 2296   1.187   1.128   0.389  0.2992 -1.3691 -1.3089
  705SOL    HW2 2297   1.284   1.053   0.496 -0.2379  0.2895  0.3956
  706SOL     OW 2298   2.626   3.552   0.056  0.4593  0.5141  0.4612
  706SOL    HW1 2299   2.563   3.476   0.036 -0.0410  0.8049  0.8995
  706SOL    HW2 2300   2.579   3.618   0.115  1.5245  0.2041  1.7073
  707SOL     OW 2301   1.461   0.844   3.311  0.4469  0.7486  0.3130
  707SOL    HW1 2302   1.372   0.888   3.305  1.1269  2.1881  0.3723
  707SOL    HW2 2303   1.531   0.913   3.326  1.5166 -0.4124  0.8915
  708SOL     OW 2304   1.249   0.316   4.210  0.2625  0.2639  0.1302
  708SOL    HW1 2305   1.166   0.369   4.193 -1.1512 -1.3357  1.6974
  708SOL    HW2 2306   1.277   0.272   4.125  0.7193  2.3832 -0.8902
  709SOL     OW 2307   2.273   4.010   2.132  0.1902 -0.5881  0.2469
  709SOL    HW1 2308   2.336   4.088   2.136  0.8747 -1.1149 -0.0312
  709SOL    HW2 2309   2.180   4.042   2.152  0.9489 -0.3536  4.2494
  710SOL     OW 2310   2.180   1.817   0.262 -0.3334 -0.0231 -0.3884
  710SOL    HW1 2311   2.277   1.839   0.271 -0.5189  1.5226 -1.7169
  710SOL    HW2 2312   2.154   1.754   0.336  1.6034 -0.3037  0.1214
  711SOL     OW 2313   2.543   2.868   0.792 -0.4213  0.1903  0.5642
  711SOL    HW1 2314   2.531   2.867   0.693 -1.2559  2.9237  0.5611
  711SOL    HW2 2315   2.640   2.869   0.813 -0.2012 -1.9853 -0.1206
  712SOL     OW 2316   1.512   2.793   2.931  0.8298 -0.2497 -0.2610
  712SOL    HW1 2317   1.607   2.795   2.962  0.4019  1.6622  1.1316
  712SOL    HW2 2318   1.509   2.784   2.832  2.5120  0.8543 -0.4452
  713SOL     OW 2319   3.750   3.526   2.114  0.3744 -0.1525 -0.4067
  713SOL    HW1 2320   3.750   3.561   2.207  0.5892  0.4577 -0.6342
  713SOL    HW2 2321   3.720   3.430   2.115 -0.7319  0.1801  0.1583
  714SOL     OW 2322   2.171   3.338   2.905  0.3077 -0.0777  0.1491
  714SOL    HW1 2323   2.175   3.331   2.806 -0.7687 -2.9217  0.2109
  714SOL    HW2 2324   2.262   3.319   2.943  0.6918  0.8842 -0.2705
  715SOL     OW 2325   0.494   4.024   1.447 -0.2736  0.2468 -0.5370
  715SOL    HW1 2326   0.399   4.041   1.475  0.0829 -0.3420  1.0899
  715SOL    HW2 2327   0.521   4.096   1.382 -0.7041  2.5467  1.6630
  716SOL     OW 2328   0.306   4.157   3.182  0.2523  0.0704  1.0281
  716SOL    HW1 2329   0.286   4.238   3.237 -2.2295  0.3064 -0.1125
  716SOL    HW2 2330   0.387   4.175   3.126  0.6412  1.1703  1.9002
  717SOL     OW 2331   1.217   3.916   4.129  0.1186  0.0595 -0.1287
  717SOL    HW1 2332   1.153   3.941   4.057 -0.6014 -2.3725 -0.4251
  717SOL    HW2 2333   1.240   3.997   4.182 -1.1798  1.4719 -1.6131
  718SOL     OW 2334   2.611   2.015   3.959 -0.3163 -0.4200 -0.2847
  718SOL    HW1 2335   2.581   2.091   3.903  2.2520  0.0208 -1.1922
  718SOL    HW2 2336   2.684   1.965   3.912 -1.9576 -3.5670  0.2201
  719SOL     OW 2337   2.306   2.723   0.422 -0.2966 -0.2910 -0.1473
  719SOL    HW1 2338   2.260   2.644   0.382 -0.9692 -0.5606  1.0934
  719SOL    HW2 2339   2.237   2.794   0.441  0.1775  0.2684 -0.4837
  720SOL     OW 2340   0.742   1.630   2.233 -0.2023 -0.1574  0.2272
  720SOL    HW1 2341   0.789   1.642   2.146 -0.9226 -0.7114 -0.2492
  720SOL    HW2 2342   0.680   1.552   2.226 -3.1807  2.0742 -0.0433
  721SOL     OW 2343   4.118   0.823   1.980 -0.3791  0.2834 -0.4653
  721SOL    HW1 2344   4.193   0.761   2.004 -1.1564 -1.0287 -1.3153
  721SOL    HW2 2345   4.059   0.779   1.913 -1.6421  1.4839 -0.1905
  722SOL     OW 2346   3.953   2.639   1.392  0.0145  0.5136 -0.3691
  722SOL    HW1 2347   3.870   2.695   1.389 -0.1381  0.6104  2.8147
  722SOL    HW2 2348   3.928   2.544   1.413  0.5031 -0.2853 -2.9896
  723SOL     OW 2349   3.453   1.717   0.999 -0.0718 -0.0556 -0.3149
  723SOL    HW1 2350   3.482   1.736   1.092  0.5595 -0.9867 -0.3103
  723SOL    HW2 2351   3.429   1.620   0.991 -0.0425 -0.0038 -1.1452
  724SOL     OW 2352   0.196   2.396   0.794 -0.0691  0.0054 -0.0578
  724SOL    HW1 2353   0.258   2.375   0.869  1.1715  1.3587 -0.6420
  724SOL    HW2 2354   0.248   2.438   0.719 -1.5452  0.3288 -0.9516
  725SOL     OW 2355   1.059   2.913   2.914  0.1586 -0.1428  0.3054
  725SOL    HW1 2356   1.046   2.817   2.889 -2.2639 -0.0378  0.8750
  725SOL    HW2 2357   1.053   2.970   2.832  0.5106 -0.3934  0.1048
  726SOL     OW 2358   0.871   2.857   0.486 -0.3634 -0.3148  0.4873
  726SOL    HW1 2359   0.800   2.915   0.447 -1.1897 -1.1163  0.7834
  726SOL    HW2 2360   0.955   2.868   0.433 -1.6758 -2.0550 -2.1341
  727SOL     OW 2361   3.424   2.592   1.934  0.0126 -0.2326  0.2013
  727SOL    HW1 2362   3.512   2.564   1.897 -0.1598  0.8080 -1.0531
  727SOL    HW2 2363   3.363   2.512   1.938  0.9222 -0.9145  0.8933
  728SOL     OW 2364   2.022   2.104   2.459 -0.4856 -0.2408 -0.0796
  728SOL    HW1 2365   2.022   2.006   2.436 -1.0279 -0.1855 -0.3176
  728SOL    HW2 2366   2.010   2.114   2.558 -2.7698 -0.3789 -0.2865
  729SOL     OW 2367   1.304   1.795   1.640  0.6693 -0.0924  0.7464
  729SOL    HW1 2368   1.361   1.857   1.586  1.5317  1.0445  2.8288
  729SOL    HW2 2369   1.214   1.838   1.653  0.5718 -0.2176  0.4873
  730SOL     OW 2370   1.246   1.747   2.732 -0.4672 -0.1151 -0.1185
  730SOL    HW1 2371   1.254   1.714   2.637 -1.3762 -1.3697  0.2085
  730SOL    HW2 2372   1.260   1.671   2.794 -1.0080  0.4605  0.7300
  731SOL     OW 2373   1.377   2.266   2.495 -0.1054  0.4725 -0.1473
  731SOL    HW1 2374   1.436   2.239   2.418 -0.9690 -0.2236 -0.5845
  731SOL    HW2 2375   1.313   2.192   2.514  0.1092  0.6272  1.2749
  732SOL     OW 2376   2.528   0.724   0.912 -0.3906 -0.0457  0.5862
  732SOL    HW1 2377   2.564   0.718   0.819 -0.5355  1.5904  0.3965
  732SOL    HW2 2378   2.508   0.632   0.945 -1.4764 -0.6013 -1.4397
  733SOL     OW 2379   1.733   4.226   2.623 -0.5115  0.0373  0.0689
  733SOL    HW1 2380   1.712   4.275   2.539 -0.1808 -1.0983 -0.6932
  733SOL    HW2 2381   1.697   4.133   2.617  2.3600 -1.1633 -0.2322
  734SOL     OW 2382   3.880   1.896   3.459 -0.6191 -0.1646  0.0770
  734SOL    HW1 2383   3.842   1.836   3.388 -1.1901 -1.3975  1.3723
  734SOL    HW2 2384   3.811   1.963   3.486  0.7344  2.7882 -3.0099
  735SOL     OW 2385   2.004   2.476   0.466  0.0433 -0.0481 -0.5164
  735SOL    HW1 2386   1.924   2.527   0.433 -0.4553 -0.4360  0.0662
  735SOL    HW2 2387   1.978   2.382   0.486  0.6518 -0.1877 -0.3443
  736SOL     OW 2388   1.935   1.838   2.468  0.2989 -0.3369  0.0084
  736SOL    HW1 2389   1.921   1.799   2.559 -0.3677 -1.1678 -0.4351
  736SOL    HW2 2390   1.980   1.770   2.410  0.5321  0.1153 -0.3424
  737SOL     OW 2391   1.569   3.344   0.936  0.2212 -0.3101  0.9362
  737SOL    HW1 2392   1.549   3.439   0.911 -1.6291 -0.9084 -0.0620
  737SOL    HW2 2393   1.642   3.309   0.878 -0.5344 -0.1162 -0.1640
  738SOL     OW 2394   0.576   1.006   2.188  0.5512 -0.1013 -0.1133
  738SOL    HW1 2395   0.541   0.913   2.175 -1.9485  1.0060 -2.1611
  738SOL    HW2 2396   0.562   1.058   2.104  0.0620  2.6834  1.5786
  739SOL     OW 2397   2.558   2.277   3.806 -0.2130 -0.0843  0.2249
  739SOL    HW1 2398   2.528   2.349   3.743  0.3663  2.0379  2.2506
  739SOL    HW2 2399   2.656   2.264   3.797 -0.4981 -1.7437 -1.1396
  740SOL     OW 2400   1.310   1.272   0.335  0.7206 -0.2414  0.3614
  740SOL    HW1 2401   1.344   1.347   0.392 -0.1325 -1.3893  2.4811
  740SOL    HW2 2402   1.257   1.310   0.259 -0.6527  1.3001  2.0152
  741SOL     OW 2403   0.614   3.299   1.585 -0.3150  0.5253 -0.6246
  741SOL    HW1 2404   0.648   3.359   1.512  2.0353  1.5540  1.1844
  741SOL    HW2 2405   0.531   3.339   1.623  0.1390  1.6275 -0.7514
  742SOL     OW 2406   2.951   3.151   3.437  0.4021 -0.3403 -0.2615
  742SOL    HW1 2407   3.029   3.088   3.432 -0.1693 -1.0449 -0.5985
  742SOL    HW2 2408   2.880   3.120   3.374  0.5875  1.3613 -1.3744
  743SOL     OW 2409   4.179   3.842   4.063  0.6248  0.2489  0.0994
  743SOL    HW1 2410   4.213   3.753   4.030  1.8660  0.4601  0.7364
  743SOL    HW2 2411   4.249   3.884   4.121 -0.4437  1.0935  0.8102
  744SOL     OW 2412   1.121   2.845   1.140 -0.3929 -0.0230 -0.1768
  744SOL    HW1 2413   1.165   2.760   1.113  0.1814  0.9880 -2.7744
  744SOL    HW2 2414   1.100   2.843   1.238  0.7648 -2.5820  0.0757
  745SOL     OW 2415   1.609   2.716   0.565 -0.2609  0.2648  0.2039
  745SOL    HW1 2416   1.538   2.648   0.550 -0.3423  0.8966 -2.8072
  745SOL    HW2 2417   1.582   2.803   0.525  2.1224  0.5462 -1.0097
  746SOL     OW 2418   3.245   1.690   3.093  0.1279 -0.1472 -0.0057
  746SOL    HW1 2419   3.242   1.727   3.000  0.4414  1.7596  0.6887
  746SOL    HW2 2420   3.336   1.706   3.131  0.1621 -1.3817  0.4651
  747SOL     OW 2421   1.777   3.754   1.903  0.6471 -0.1974 -0.1726
  747SOL    HW1 2422   1.861   3.807   1.892  2.1878 -2.5753 -0.5490
  747SOL    HW2 2423   1.752   3.751   2.000  0.7181  0.8976 -0.1096
  748SOL     OW 2424   0.601   3.656   2.085 -0.2673  0.3133 -0.6914
  748SOL    HW1 2425   0.613   3.669   1.986 -2.1285 -1.4032 -1.2100
  748SOL    HW2 2426   0.679   3.605   2.121 -0.5149 -0.8159 -1.6998
  749SOL     OW 2427   2.989   3.312   1.461 -0.1609  0.3841  0.1469
  749SOL    HW1 2428   2.937   3.392   1.432 -3.1166 -1.3098  0.3612
  749SOL    HW2 2429   3.054   3.287   1.389 -0.7134  1.6879 -0.8474
  750SOL     OW 2430   4.165   4.063   1.300  0.0478 -0.0413 -0.0503
  750SOL    HW1 2431   4.164   4.003   1.220 -0.5897 -0.2138  0.0822
  750SOL    HW2 2432   4.216   4.020   1.374  1.3638  0.4758 -0.6273
  751SOL     OW 2433   3.154   1.847   2.899  0.0934 -0.0045 -0.1519
  751SOL    HW1 2434   3.151   1.924   2.835 -0.8093 -0.6759 -0.9434
  751SOL    HW2 2435   3.079   1.784   2.878 -0.1871 -0.2746  1.5285
  752SOL     OW 2436   0.103   1.891   2.025 -0.4063  0.0805 -0.0441
  752SOL    HW1 2437   0.089   1.924   2.119  1.7676  1.1715 -0.0442
  752SOL    HW2 2438   0.036   1.934   1.965 -0.0539  1.5428  0.5823
  753SOL     OW 2439   1.941   2.366   2.451 -0.1910  0.1989  0.2088
  753SOL    HW1 2440   1.974   2.274   2.431 -0.6275  0.0134  0.3103
  753SOL    HW2 2441   2.014   2.432   2.436 -0.0324 -0.1076 -0.4056
  754SOL     OW 2442   2.720   2.583   3.448 -0.0561  0.2115 -0.3692
  754SOL    HW1 2443   2.769   2.609   3.531 -1.8915  1.2427  0.4615
  754SOL    HW2 2444   2.767   2.507   3.404  0.6859 -0.7025  1.8811
  755SOL     OW 2445   2.146   4.034   4.205  0.4736 -0.3142  0.3992
  755SOL    HW1 2446   2.066   3.977   4.224  0.6058 -0.0020  2.0629
  755SOL    HW2 2447   2.228   3.977   4.208  0.5745 -0.1341  1.7358
  756SOL     OW 2448   1.508   3.742   0.785  0.2247  0.6372 -0.1759
  756SOL    HW1 2449   1.460   3.697   0.860  0.3666 -0.7571 -0.8914
  756SOL    HW2 2450   1.519   3.678   0.709  1.3292  1.5755 -0.8555
  757SOL     OW 2451   2.263   1.562   2.011 -0.5466  0.1414  0.1162
  757SOL    HW1 2452   2.289   1.497   1.939 -2.0533  0.7001 -1.0009
  757SOL    HW2 2453   2.260   1.654   1.973  1.3521  0.8816  1.6342
  758SOL     OW 2454   0.084   3.194   2.685 -0.0798 -0.2027  0.1547
  758SOL    HW1 2455   0.030   3.166   2.764  0.5053  0.1611  0.6868
  758SOL    HW2 2456   0.117   3.287   2.698  1.7079 -0.8321  0.4147
  759SOL     OW 2457   2.390   0.774   0.327  0.5273 -0.7045 -0.1536
  759SOL    HW1 2458   2.476   0.727   0.309  1.5054  0.8344  0.2555
  759SOL    HW2 2459   2.332   0.770   0.246  2.2993  0.8921 -1.5881
  760SOL     OW 2460   0.626   2.888   2.268  1.1038 -0.1386  0.1380
  760SOL    HW1 2461   0.620   2.791   2.243 -0.2074  0.3663 -1.7167
  760SOL    HW2 2462   0.558   2.908   2.339  0.1471 -0.2519 -0.7221
  761SOL     OW 2463   3.737   2.784   1.587  0.2869 -0.1227  0.0597
  761SOL    HW1 2464   3.728   2.883   1.597 -0.6517  0.2239 -3.1131
  761SOL    HW2 2465   3.646   2.743   1.580  0.6808 -1.0522  0.3121
  762SOL     OW 2466   3.114   0.270   3.578  0.0503  0.2808  0.1535
  762SOL    HW1 2467   3.043   0.228   3.522 -0.1365  0.4996  0.2261
  762SOL    HW2 2468   3.198   0.276   3.525  0.4796 -1.4196  0.5696
  763SOL     OW 2469   1.113   2.607   2.728  0.5803 -0.2709 -0.3337
  763SOL    HW1 2470   1.165   2.572   2.806 -0.7665 -0.3723  0.5519
  763SOL    HW2 2471   1.164   2.682   2.686  1.0522  0.2213  1.0447
  764SOL     OW 2472   1.365   0.139   0.949 -0.0846  0.4054 -0.5652
  764SOL    HW1 2473   1.337   0.119   1.043  0.7512 -2.0286 -0.7592
  764SOL    HW2 2474   1.361   0.055   0.895  5.0214  0.2317 -1.1956
  765SOL     OW 2475   1.863   1.861   1.601  0.0275 -0.1940 -0.1641
  765SOL    HW1 2476   1.823   1.868   1.692  0.1148  0.2089 -0.1538
  765SOL    HW2 2477   1.794   1.888   1.533 -0.5168 -1.8927 -0.3389
  766SOL     OW 2478   3.086   3.750   2.056  0.4293 -0.3420 -0.1035
  766SOL    HW1 2479   3.173   3.745   2.104  0.3196 -0.6911  0.0640
  766SOL    HW2 2480   3.067   3.661   2.013 -0.6054 -0.7924  1.2045
  767SOL     OW 2481   2.233   1.160   0.494  0.0255 -0.2196 -0.3851
  767SOL    HW1 2482   2.215   1.207   0.581  1.0481  0.5002 -0.5479
  767SOL    HW2 2483   2.321   1.113   0.501  0.2707  0.1235 -1.1476
  768SOL     OW 2484   2.101   3.097   2.545 -0.0430 -0.0590 -0.4918
  768SOL    HW1 2485   2.028   3.124   2.482 -0.6473  0.7391  0.5251
  768SOL    HW2 2486   2.184   3.078   2.493 -0.3120  1.3208 -1.4619
  769SOL     OW 2487   2.530   3.398   3.949  0.1538  0.5199 -0.0852
  769SOL    HW1 2488   2.505   3.421   3.854 -1.8194  3.5617  1.0183
  769SOL    HW2 2489   2.550   3.483   3.998 -1.3148 -0.7162  2.8478
  770SOL     OW 2490   1.765   1.121   0.475  0.4455 -0.4166  0.1418
  770SOL    HW1 2491   1.844   1.067   0.445  0.2897 -0.5912  0.0397
  770SOL    HW2 2492   1.703   1.061   0.527  0.0862 -0.4303 -0.2981
  771SOL     OW 2493   0.803   1.285   3.183 -0.7987 -0.1154 -0.2675
  771SOL    HW1 2494   0.748   1.307   3.103 -1.7611 -1.5112 -0.0369
  771SOL    HW2 2495   0.745   1.239   3.251  0.5437 -1.2217  0.1783
  772SOL     OW 2496   3.087   4.132   0.379 -0.3989 -0.4662 -0.4450
  772SOL    HW1 2497   3.156   4.096   0.316  0.7070 -1.5054  1.2509
  772SOL    HW2 2498   3.006   4.073   0.376 -0.5016 -0.2973 -1.1407
  773SOL     OW 2499   1.941   3.141   0.505  0.0411  0.3290 -0.0890
  773SOL    HW1 2500   1.978   3.225   0.546  1.1445  1.5368 -3.2473
  773SOL    HW2 2501   1.844   3.134   0.528 -0.4798  3.3694 -0.8967
  774SOL     OW 2502   2.970   2.777   3.439  0.4648  0.2982  0.0127
  774SOL    HW1 2503   2.927   2.705   3.494 -1.4517 -0.5891 -2.4676
  774SOL    HW2 2504   2.901   2.846   3.417  1.2733  0.8025 -0.9879
  775SOL     OW 2505   3.435   0.458   2.140  0.7153 -0.1166  0.3954
  775SOL    HW1 2506   3.489   0.385   2.181  0.4384 -0.9445 -0.6533
  775SOL    HW2 2507   3.385   0.506   2.212  0.3437 -1.4218  1.0496
  776SOL     OW 2508   0.276   0.093   3.777  0.3410 -0.3940 -0.6235
  776SOL    HW1 2509   0.337   0.159   3.733 -1.3290  0.5629 -1.6083
  776SOL    HW2 2510   0.257   0.018   3.713 -0.6050  0.0311 -0.8523
  777SOL     OW 2511   0.601   2.610   1.416  0.2147 -0.4781  0.0885
  777SOL    HW1 2512   0.699   2.621   1.430 -0.0915  1.6187  0.8241
  777SOL    HW2 2513   0.554   2.693   1.444 -1.6588 -0.8917 -1.5915
  778SOL     OW 2514   1.867   0.103   1.516  0.0309  0.3983 -0.3461
  778SOL    HW1 2515   1.774   0.137   1.528 -0.3622 -0.3492 -1.1020
  778SOL    HW2 2516   1.895   0.054   1.598 -0.5160  0.0232 -0.3796
  779SOL     OW 2517   1.311   0.413   0.966  0.6647  0.4915  0.4059
  779SOL    HW1 2518   1.394   0.466   0.983  0.9024  0.1473  0.3053
  779SOL    HW2 2519   1.331   0.316   0.970  0.2332  0.4025  0.5454
  780SOL     OW 2520   2.717   0.159   2.447  0.3460  0.3341  0.3048
  780SOL    HW1 2521   2.736   0.210   2.530 -1.0081  2.8691 -0.8124
  780SOL    HW2 2522   2.641   0.096   2.464  0.7356  0.0986  1.2204
  781SOL     OW 2523   1.246   4.139   2.128 -0.2343  0.4273 -0.1578
  781SOL    HW1 2524   1.276   4.116   2.035  0.4093 -0.0598  0.1679
  781SOL    HW2 2525   1.183   4.069   2.160  1.2153 -0.5793  0.5826
  782SOL     OW 2526   1.207   2.585   1.118 -0.4116 -0.3012  0.5222
  782SOL    HW1 2527   1.117   2.558   1.154  0.1221 -1.2894  1.1398
  782SOL    HW2 2528   1.243   2.512   1.062  0.4234 -0.2974  1.0396
  783SOL     OW 2529   0.875   2.618   1.433  0.2433 -0.4190 -0.8050
  783SOL    HW1 2530   0.916   2.549   1.492  1.1222  1.0859  0.4405
  783SOL    HW2 2531   0.943   2.648   1.365  0.4757  0.4180 -0.2265
  784SOL     OW 2532   1.526   1.946   1.696 -0.2800 -1.0410 -0.3587
  784SOL    HW1 2533   1.483   1.858   1.715  2.1193 -2.2910 -0.3832
  784SOL    HW2 2534   1.571   1.943   1.606 -0.3268  0.2817 -0.4531
  785SOL     OW 2535   2.564   2.543   2.368  0.5611  0.5511  0.0556
  785SOL    HW1 2536   2.531   2.547   2.462  0.1756 -2.1687  0.1099
  785SOL    HW2 2537   2.486   2.527   2.307  1.1969 -1.6546 -0.2595
  786SOL     OW 2538   1.482   1.752   1.932 -0.2814  0.2377 -0.1691
  786SOL    HW1 2539   1.411   1.683   1.918 -0.5149  0.6221 -0.9401
  786SOL    HW2 2540   1.543   1.723   2.006 -0.5953 -0.6123 -0.2402
  787SOL     OW 2541   1.091   2.817   1.401  0.4830  0.3326  0.2353
  787SOL    HW1 2542   1.177   2.830   1.449  0.5683  0.4089  0.0650
  787SOL    HW2 2543   1.015   2.827   1.465  0.6419 -1.5957  0.7921
  788SOL     OW 2544   1.604   3.006   3.958 -0.0465 -0.5392 -0.1039
  788SOL    HW1 2545   1.585   2.912   3.930  0.9689 -0.6485 -0.4818
  788SOL    HW2 2546   1.521   3.047   3.996 -0.0524 -2.2103  1.8666
  789SOL     OW 2547   1.624   1.222   0.288 -0.2385 -0.9538  0.1107
  789SOL    HW1 2548   1.531   1.195   0.310 -0.6199  1.0455  1.2633
  789SOL    HW2 2549   1.686   1.190   0.360 -0.6684  0.8901  1.3978
  790SOL     OW 2550   3.254   3.293   2.473  0.8552  0.2144 -0.1940
  790SOL    HW1 2551   3.162   3.326   2.492  0.9192  0.9342 -1.0613
  790SOL    HW2 2552   3.316   3.324   2.545  1.0631  2.7412 -1.3305
  791SOL     OW 2553   3.505   3.216   0.193  0.3946  0.2358  0.0970
  791SOL    HW1 2554   3.519   3.152   0.118  0.8305  0.9160 -0.4138
  791SOL    HW2 2555   3.459   3.298   0.159 -0.2473  0.1730  0.7623
  792SOL     OW 2556   2.394   2.604   0.877 -0.1976  0.2159 -0.1137
  792SOL    HW1 2557   2.456   2.659   0.822  0.1687 -0.0985 -0.0238
  792SOL    HW2 2558   2.321   2.567   0.819 -0.8490  1.3533 -0.0485
  793SOL     OW 2559   2.073   3.097   4.093 -0.4390  0.1526  0.2510
  793SOL    HW1 2560   2.090   3.166   4.022  0.3447 -0.6051 -0.3181
  793SOL    HW2 2561   1.992   3.043   4.067 -0.3103  0.0483  0.0604
  794SOL     OW 2562   0.259   4.094   1.572 -0.2600 -0.9025  0.1219
  794SOL    HW1 2563   0.258   4.040   1.657  0.1450 -1.2156 -0.0671
  794SOL    HW2 2564   0.240   4.190   1.594  1.1534 -0.7404  0.7459
  795SOL     OW 2565   1.045   4.115   3.592 -0.1725  0.5718 -0.1702
  795SOL    HW1 2566   1.035   4.215   3.595 -0.7845  0.4875  1.2619
  795SOL    HW2 2567   0.956   4.074   3.573 -0.3482  0.2482  1.2341
  796SOL     OW 2568   3.226   3.446   3.663  0.8406  0.7769 -0.7066
  796SOL    HW1 2569   3.267   3.388   3.593  0.9892  2.8459 -2.4298
  796SOL    HW2 2570   3.127   3.435   3.661  0.9152 -0.0017 -0.4511
  797SOL     OW 2571   3.553   0.568   2.450  0.0313 -0.2490  0.0090
  797SOL    HW1 2572   3.582   0.541   2.542  0.1211 -1.1572 -0.2768
  797SOL    HW2 2573   3.453   0.580   2.449  0.1568  1.0827  0.5383
  798SOL     OW 2574   0.654   3.554   1.458  0.0415  1.0277  0.7917
  798SOL    HW1 2575   0.560   3.581   1.481 -0.1129 -0.1305  1.6126
  798SOL    HW2 2576   0.693   3.621   1.395 -1.4522  1.3475  0.1681
  799SOL     OW 2577   0.767   3.705   3.593 -0.1799  0.1520  0.3652
  799SOL    HW1 2578   0.764   3.787   3.536 -2.9619 -0.9192 -1.2625
  799SOL    HW2 2579   0.729   3.725   3.683 -1.9777  0.4694 -0.4166
  800SOL     OW 2580   1.973   4.187   2.502  0.0726 -0.5086 -0.5698
  800SOL    HW1 2581   1.886   4.201   2.550 -0.8966 -3.4103 -1.2709
  800SOL    HW2 2582   2.013   4.101   2.532  3.0778  0.9951  0.1250
  801SOL     OW 2583   1.727   3.586   2.406  0.0381  0.0084 -0.5547
  801SOL    HW1 2584   1.791   3.655   2.440 -0.4299  0.2446 -0.1381
  801SOL    HW2 2585   1.633   3.622   2.412 -0.1546 -0.4085 -0.9646
  802SOL     OW 2586   3.700   0.172   3.208  0.2231  0.5722 -0.6060
  802SOL    HW1 2587   3.691   0.146   3.112 -0.1236  0.4039 -0.5265
  802SOL    HW2 2588   3.636   0.119   3.263  1.2189 -0.1606 -0.1236
  803SOL     OW 2589   0.217   1.852   0.900  0.2591  0.0798  0.0204
  803SOL    HW1 2590   0.130   1.826   0.942  0.2151  0.1727 -0.0125
  803SOL    HW2 2591   0.251   1.935   0.945 -0.5145  1.0464 -1.0960
  804SOL     OW 2592   3.066   1.315   3.711  0.2357 -0.3593  0.1694
  804SOL    HW1 2593   3.051   1.310   3.810 -0.4481  1.6905  0.2093
  804SOL    HW2 2594   2.982   1.343   3.666  1.1757  1.1571 -0.7284
  805SOL     OW 2595   2.332   0.145   3.184  0.3944  0.2920 -0.1117
  805SOL    HW1 2596   2.330   0.052   3.219  2.5756  1.0678  2.4272
  805SOL    HW2 2597   2.239   0.179   3.172 -0.4209 -1.6737  0.3971
  806SOL     OW 2598   2.905   2.590   1.561 -0.3021 -0.3026  0.0274
  806SOL    HW1 2599   2.957   2.524   1.507  0.0023  1.1689 -1.5861
  806SOL    HW2 2600   2.838   2.541   1.617  1.3502 -2.0910  0.5503
  807SOL     OW 2601   1.833   2.976   0.302 -0.1843 -0.1630  0.8110
  807SOL    HW1 2602   1.863   2.894   0.253  0.3610 -0.1958  1.1906
  807SOL    HW2 2603   1.912   3.020   0.344 -0.6944 -0.5427  2.2549
  808SOL     OW 2604   1.050   0.047   3.879 -0.1644 -0.2320  0.0011
  808SOL    HW1 2605   1.010  -0.037   3.916 -1.1290  0.5512  0.7651
  808SOL    HW2 2606   1.010   0.126   3.925  0.7492  0.6590 -0.6940
  809SOL     OW 2607   2.591   3.089   2.203 -0.0270 -0.6321 -0.6396
  809SOL    HW1 2608   2.522   3.152   2.239  0.2890  0.0144 -1.1283
  809SOL    HW2 2609   2.610   3.018   2.270 -0.1756 -0.0261  0.0538
  810SOL     OW 2610   2.133   2.934   0.484 -0.0825 -0.3938  0.0482
  810SOL    HW1 2611   2.121   2.925   0.385  1.8128 -1.2562 -0.1381
  810SOL    HW2 2612   2.067   3.001   0.519 -1.7492 -1.1287 -1.5470
  811SOL     OW 2613   2.050   3.608   1.696 -0.1129  0.7253  0.3898
  811SOL    HW1 2614   2.071   3.511   1.704  1.2568  1.0706  1.0787
  811SOL    HW2 2615   1.992   3.621   1.615  1.4891 -0.3978 -1.0278
  812SOL     OW 2616   1.483   3.302   0.306  0.0340 -0.8383  0.3611
  812SOL    HW1 2617   1.534   3.234   0.254 -2.1324 -0.7454 -2.1335
  812SOL    HW2 2618   1.479   3.387   0.253 -1.1504 -0.2889  1.2713
  813SOL     OW 2619   3.860   0.388   1.991  0.2075  0.2791  0.1462
  813SOL    HW1 2620   3.932   0.356   2.052 -0.1687  0.6866  0.8108
  813SOL    HW2 2621   3.797   0.312   1.972 -0.6072  0.5536  1.6170
  814SOL     OW 2622   1.901   1.975   3.355  0.1449  0.6919 -0.3729
  814SOL    HW1 2623   1.953   1.893   3.375 -0.0993  1.0065  1.9236
  814SOL    HW2 2624   1.881   1.979   3.258  0.1711 -1.9444 -0.5604
  815SOL     OW 2625   1.924   2.576   4.247  0.4184  0.2593 -0.8563
  815SOL    HW1 2626   2.006   2.520   4.262  0.2580 -0.2583 -1.8558
  815SOL    HW2 2627   1.932   2.622   4.159  0.2015  1.2371 -0.3839
  816SOL     OW 2628   0.880   1.142   2.024  0.3592  0.6025  0.3883
  816SOL    HW1 2629   0.838   1.102   1.943  0.0224  3.7078 -1.1050
  816SOL    HW2 2630   0.978   1.121   2.023  0.1269 -0.5194 -0.0804
  817SOL     OW 2631   4.240   2.582   2.537 -0.2214 -0.2776  0.6478
  817SOL    HW1 2632   4.148   2.611   2.510  0.6099  0.7753 -1.2390
  817SOL    HW2 2633   4.263   2.624   2.625 -0.6727  1.3613  0.0189
  818SOL     OW 2634   3.309   3.909   2.896  0.0494 -0.3847 -0.3452
  818SOL    HW1 2635   3.228   3.860   2.927  1.4627 -1.5026  1.7801
  818SOL    HW2 2636   3.284   4.003   2.873 -1.5167 -0.0463  2.3544
  819SOL     OW 2637   0.271   0.411   2.246 -0.2154  0.2539 -0.4150
  819SOL    HW1 2638   0.212   0.462   2.309 -0.5829 -1.3105  0.5889
  819SOL    HW2 2639   0.284   0.319   2.282  0.2561 -0.4348 -2.2355
  820SOL     OW 2640   1.593   0.245   0.850  0.3765 -0.5000 -0.5421
  820SOL    HW1 2641   1.531   0.202   0.915  0.6173 -0.2066 -0.1113
  820SOL    HW2 2642   1.666   0.292   0.900 -0.2415  0.9669 -0.9747
  821SOL     OW 2643   3.649   1.738   1.495 -0.1157  0.3079 -0.9352
  821SOL    HW1 2644   3.684   1.830   1.478  0.5181  0.2002 -0.2356
  821SOL    HW2 2645   3.712   1.689   1.555 -0.7051 -0.4146 -0.8916
  822SOL     OW 2646   2.237   3.573   2.466  0.3898 -0.1473 -0.6611
  822SOL    HW1 2647   2.336   3.563   2.471  0.3324 -0.9266 -0.9388
  822SOL    HW2 2648   2.203   3.525   2.385 -0.3720 -1.2576  0.2723
  823SOL     OW 2649   3.212   2.382   3.347  0.8228  0.5550 -0.2935
  823SOL    HW1 2650   3.215   2.376   3.447  1.8547  0.6801 -0.3038
  823SOL    HW2 2651   3.213   2.479   3.320  0.5492  0.5213 -0.4214
  824SOL     OW 2652   1.231   0.698   3.952  0.1368  0.1805  0.5878
  824SOL    HW1 2653   1.300   0.739   4.011  1.1097  0.6865 -0.8494
  824SOL    HW2 2654   1.274   0.661   3.870 -1.4542  2.6460 -1.5293
  825SOL     OW 2655   1.879   3.886   0.260  1.2136 -0.0091  0.1087
  825SOL    HW1 2656   1.795   3.931   0.291  1.2470 -0.0454  0.2486
  825SOL    HW2 2657   1.954   3.910   0.321  1.1716 -0.4886  0.3458
  826SOL     OW 2658   2.067   3.386   3.173 -0.4506  0.0744  0.0867
  826SOL    HW1 2659   2.109   3.374   3.083  1.2891 -0.4115  0.9299
  826SOL    HW2 2660   1.987   3.327   3.180  0.4311 -1.2398 -0.5180
  827SOL     OW 2661   0.754   3.874   3.901 -0.2720  0.2849 -0.6030
  827SOL    HW1 2662   0.665   3.920   3.894  0.1006  0.9872 -0.7660
  827SOL    HW2 2663   0.815   3.928   3.959  0.4260  0.3921 -1.4247
  828SOL     OW 2664   3.020   3.327   2.133  0.3663 -0.1557 -0.0131
  828SOL    HW1 2665   2.984   3.259   2.196 -0.1892 -0.2080 -0.3833
  828SOL    HW2 2666   3.115   3.347   2.158  0.3782 -0.6928  0.4036
  829SOL     OW 2667   1.989   1.466   0.348  0.2849 -0.0303  0.2485
  829SOL    HW1 2668   1.902   1.501   0.313  0.7287  1.9055  0.9541
  829SOL    HW2 2669   2.008   1.378   0.306 -1.4594  0.0420 -0.7895
  830SOL     OW 2670   2.620   2.615   3.010  0.7083  0.3640 -0.0934
  830SOL    HW1 2671   2.571   2.643   3.093  0.0493  1.0583 -0.7111
  830SOL    HW2 2672   2.661   2.695   2.968  0.6343  0.0829 -0.7024
  831SOL     OW 2673   1.902   3.977   0.726 -0.1797  0.4200 -0.0573
  831SOL    HW1 2674   1.861   4.067   0.745  1.0671  0.7567  1.1944
  831SOL    HW2 2675   1.986   3.989   0.674 -1.1273 -0.2148 -1.8377
  832SOL     OW 2676   2.408   3.467   3.458 -0.2481 -0.0500  0.0040
  832SOL    HW1 2677   2.394   3.393   3.524 -0.9472 -1.1319 -1.3105
  832SOL    HW2 2678   2.321   3.513   3.441  0.2569  1.4190  1.1439
  833SOL     OW 2679   3.379   2.421   1.336  0.1840  0.0856  0.8567
  833SOL    HW1 2680   3.431   2.389   1.414  0.8628  0.5291  0.5986
  833SOL    HW2 2681   3.441   2.436   1.259 -0.4408 -0.1300  0.3014
  834SOL     OW 2682   0.298   2.815   3.394  0.4845  0.0914 -0.1934
  834SOL    HW1 2683   0.256   2.772   3.474  1.0393  2.2603  1.3643
  834SOL    HW2 2684   0.363   2.751   3.352  0.4479 -0.9694  1.3041
  835SOL     OW 2685   0.858   2.810   1.679 -0.4062  0.5690 -0.4294
  835SOL    HW1 2686   0.789   2.772   1.618 -2.5249 -0.3496  2.3130
  835SOL    HW2 2687   0.841   2.908   1.691 -0.0486  0.7297 -1.1996
  836SOL     OW 2688   2.949   3.631   0.874  0.6807  0.0586  0.3228
  836SOL    HW1 2689   2.903   3.562   0.817  2.5208  0.0937 -1.3368
  836SOL    HW2 2690   3.005   3.584   0.943 -0.2248 -0.0184  1.0227
  837SOL     OW 2691   0.717   3.065   1.715 -0.1251 -0.2768  0.0659
  837SOL    HW1 2692   0.694   3.058   1.812 -1.4762  0.1708 -0.2013
  837SOL    HW2 2693   0.667   3.142   1.675 -0.9448 -1.4940 -1.3468
  838SOL     OW 2694   3.997   0.186   2.154  0.4867  0.2232 -0.3057
  838SOL    HW1 2695   3.982   0.091   2.179  0.2321  0.4590  0.4970
  838SOL    HW2 2696   4.070   0.224   2.211 -1.6115  1.4008  1.7915
  839SOL     OW 2697   1.911   0.421   0.739  0.5046  0.6300  0.0546
  839SOL    HW1 2698   1.910   0.340   0.680 -1.8416  0.6904 -0.0508
  839SOL    HW2 2699   1.961   0.494   0.692  0.5158  0.0159 -0.9314
  840SOL     OW 2700   1.792   3.742   0.763 -0.1810 -0.0561 -0.6611
  840SOL    HW1 2701   1.694   3.761   0.773 -0.3102 -0.6907 -0.6923
  840SOL    HW2 2702   1.841   3.828   0.751 -0.4008  0.5149  2.0321
  841SOL     OW 2703   0.089   2.267   1.473 -0.2760 -0.1214 -0.1558
  841SOL    HW1 2704   0.030   2.220   1.408 -0.7075  0.5316 -0.2414
  841SOL    HW2 2705   0.169   2.210   1.491 -0.6177 -0.7306 -0.5230
  842SOL     OW 2706   2.580   0.058   3.146  0.1113  0.4649  0.1975
  842SOL    HW1 2707   2.601   0.020   3.056  1.7797  0.3990  0.5745
  842SOL    HW2 2708   2.482   0.079   3.151 -0.4368 -1.5621 -0.8456
  843SOL     OW 2709   0.614   1.885   1.474  0.2831 -0.1920  0.2627
  843SOL    HW1 2710   0.590   1.971   1.430 -0.3648  0.2970  1.5336
  843SOL    HW2 2711   0.582   1.885   1.569 -0.9522 -2.3669 -0.0783
  844SOL     OW 2712   2.537   2.661   3.742 -0.4520  0.0700 -0.5047
  844SOL    HW1 2713   2.547   2.581   3.683 -0.0819 -1.2724  1.2644
  844SOL    HW2 2714   2.464   2.719   3.708 -0.2603 -0.6491 -2.2350
  845SOL     OW 2715   0.311   0.494   3.326 -0.8463 -0.1496  0.2599
  845SOL    HW1 2716   0.250   0.484   3.247 -0.8968  0.0550  0.2701
  845SOL    HW2 2717   0.371   0.415   3.332 -0.0299  0.3825 -0.6902
  846SOL     OW 2718   2.119   3.364   3.936 -0.2596 -0.2874  0.0402
  846SOL    HW1 2719   2.022   3.388   3.939  0.0142  0.8114  1.5825
  846SOL    HW2 2720   2.169   3.420   4.003  1.3889 -1.0702 -0.4695
  847SOL     OW 2721   0.976   3.600   2.637 -0.5139  0.9943 -0.2397
  847SOL    HW1 2722   0.899   3.568   2.583 -0.2834  2.0102 -1.2244
  847SOL    HW2 2723   0.994   3.536   2.711 -1.4129  0.0280 -0.8343
  848SOL     OW 2724   0.342   3.554   2.246  0.1400 -1.1438  0.0696
  848SOL    HW1 2725   0.413   3.590   2.186 -0.1483 -0.1945  0.2762
  848SOL    HW2 2726   0.318   3.461   2.218  0.2871 -0.8586 -1.0339
  849SOL     OW 2727   4.242   3.582   3.985 -0.1408  0.6543  0.1900
  849SOL    HW1 2728   4.290   3.556   3.901  1.9627  0.8009  1.2848
  849SOL    HW2 2729   4.232   3.501   4.043 -0.6604  0.7599  0.2527
  850SOL     OW 2730   1.722   4.041   0.439 -0.2841  0.6464 -0.0940
  850SOL    HW1 2731   1.778   4.105   0.490  0.5955 -0.1316 -0.0499
  850SOL    HW2 2732   1.660   3.993   0.502 -0.5121  1.0131 -0.0392
  851SOL     OW 2733   1.290   3.106   2.240  0.0497  0.3182 -0.2550
  851SOL    HW1 2734   1.257   3.018   2.206 -1.8670 -0.0202  2.1738
  851SOL    HW2 2735   1.359   3.090   2.310 -1.1082  0.6202  1.0082
  852SOL     OW 2736   1.997   1.417   2.740 -0.1088  0.2193 -0.0850
  852SOL    HW1 2737   2.035   1.392   2.651 -0.9200  0.6040 -0.5452
  852SOL    HW2 2738   1.920   1.357   2.762  0.5565 -0.3679  0.7129
  853SOL     OW 2739   3.210   3.606   3.446  0.6569 -0.3941 -0.0696
  853SOL    HW1 2740   3.129   3.666   3.443 -0.8164 -2.2878  0.0747
  853SOL    HW2 2741   3.217   3.565   3.537  2.0866  0.0920  0.0644
  854SOL     OW 2742   3.362   1.109   1.126 -1.1429 -0.0573 -0.3493
  854SOL    HW1 2743   3.285   1.047   1.115  0.1807 -1.6337 -1.2333
  854SOL    HW2 2744   3.413   1.083   1.208 -2.2022  1.7848  0.9680
  855SOL     OW 2745   0.323   0.446   1.519  0.3419  0.1290 -0.8745
  855SOL    HW1 2746   0.234   0.436   1.474  0.0197  1.2303 -0.5365
  855SOL    HW2 2747   0.380   0.508   1.465  0.3548  0.5843 -0.3501
  856SOL     OW 2748   2.584   1.544   2.644  0.0262  0.0877 -0.0214
  856SOL    HW1 2749   2.535   1.494   2.573 -0.1079  0.5617 -0.2637
  856SOL    HW2 2750   2.679   1.558   2.616  0.3282 -0.8834  0.4738
  857SOL     OW 2751   0.217   2.764   1.379  0.5488 -0.1576  0.3648
  857SOL    HW1 2752   0.202   2.801   1.287 -1.0494  1.6477  1.2955
  857SOL    HW2 2753   0.175   2.674   1.385  2.0676 -1.0265 -1.1106
  858SOL     OW 2754   1.462   2.740   3.556  0.6838 -0.0514  0.8070
  858SOL    HW1 2755   1.500   2.648   3.568  0.2621 -0.1798  1.1804
  858SOL    HW2 2756   1.502   2.781   3.474  1.4566 -0.2707  1.0570
  859SOL     OW 2757   2.816   3.694   2.863 -0.2704  0.0435 -0.0630
  859SOL    HW1 2758   2.816   3.603   2.903 -0.0590 -0.4238 -1.1061
  859SOL    HW2 2759   2.737   3.745   2.896 -0.7085 -0.7224  0.0671
  860SOL     OW 2760   1.345   2.866   1.494 -0.8783 -0.3300  0.1463
  860SOL    HW1 2761   1.384   2.906   1.412 -0.7444  0.2689  0.4988
  860SOL    HW2 2762   1.416   2.815   1.543 -0.9293 -0.5858 -0.0454
  861SOL     OW 2763   2.535   3.715   1.782  0.0122 -0.2995  0.4506
  861SOL    HW1 2764   2.456   3.765   1.748  0.7149 -0.1385 -1.0359
  861SOL    HW2 2765   2.506   3.653   1.854 -1.2620  0.5731  0.7255
  862SOL     OW 2766   4.090   3.538   3.259  0.2429  0.2463 -0.0592
  862SOL    HW1 2767   4.021   3.524   3.331  0.1071 -0.2979 -0.2858
  862SOL    HW2 2768   4.167   3.589   3.297 -0.9210  2.1742 -0.1806
  863SOL     OW 2769   4.144   0.733   2.703 -0.0178  0.3002 -0.0581
  863SOL    HW1 2770   4.129   0.781   2.616  3.7588  3.0499  0.5651
  863SOL    HW2 2771   4.087   0.776   2.774 -0.3509  0.5511 -0.4738
  864SOL     OW 2772   0.008   3.900   1.863 -0.1782 -0.2101  0.4577
  864SOL    HW1 2773   0.083   3.865   1.920 -1.5976 -2.5687  1.0404
  864SOL    HW2 2774  -0.030   3.824   1.810 -0.8616  1.3447 -1.3801
  865SOL     OW 2775   1.926   3.913   2.618  0.0828  0.4047 -0.3589
  865SOL    HW1 2776   1.940   3.830   2.564 -1.5909 -0.6683  0.7491
  865SOL    HW2 2777   1.828   3.925   2.635  0.4781  1.1818  1.6963
  866SOL     OW 2778   2.878   3.745   2.574 -0.4012  0.2582 -0.0512
  866SOL    HW1 2779   2.847   3.685   2.648 -0.1033 -0.5229 -0.5424
  866SOL    HW2 2780   2.903   3.834   2.612 -0.9202  0.1018  0.6857
  867SOL     OW 2781   2.255   2.534   3.216 -0.0480  0.1734  0.1932
  867SOL    HW1 2782   2.189   2.528   3.140 -0.8077 -2.7875  0.9435
  867SOL    HW2 2783   2.337   2.482   3.192  0.7966  1.3399  0.4577
  868SOL     OW 2784   3.923   3.207   2.025  0.1608  0.2239 -0.1139
  868SOL    HW1 2785   3.974   3.259   2.093 -1.5097  1.1180  0.5142
  868SOL    HW2 2786   3.951   3.111   2.030  1.0081  0.4994  0.9177
  869SOL     OW 2787   3.745   0.140   1.970 -0.3363  0.0586 -0.5786
  869SOL    HW1 2788   3.829   0.094   1.999 -0.1574  0.0386 -1.1254
  869SOL    HW2 2789   3.693   0.079   1.911 -1.2234 -0.3051  0.5383
  870SOL     OW 2790   3.067   3.463   1.070  0.1104  0.8925  0.2825
  870SOL    HW1 2791   3.085   3.518   1.152  1.2060 -0.4553  0.9742
  870SOL    HW2 2792   3.005   3.389   1.093  0.1753  0.6886 -0.1861
  871SOL     OW 2793   3.450   3.702   2.768  0.3192 -0.4668 -0.5908
  871SOL    HW1 2794   3.368   3.671   2.718  0.7369 -0.2713 -1.4097
  871SOL    HW2 2795   3.429   3.787   2.816  0.0065 -0.4791 -0.7027
  872SOL     OW 2796   1.932   2.777   3.458 -0.0034 -0.3026 -0.6067
  872SOL    HW1 2797   1.841   2.758   3.422 -0.6171  0.8493  0.2461
  872SOL    HW2 2798   1.965   2.697   3.508 -0.0392 -1.1378 -1.8855
  873SOL     OW 2799   4.118   3.040   0.173  0.4480 -0.1898  0.4536
  873SOL    HW1 2800   4.040   3.062   0.115 -0.0442  2.6021  1.9878
  873SOL    HW2 2801   4.090   2.974   0.243 -0.0656 -0.4047  0.0484
  874SOL     OW 2802   3.159   0.700   0.741 -0.0359  0.1131  0.0258
  874SOL    HW1 2803   3.075   0.668   0.698 -0.5038 -0.2114  1.1468
  874SOL    HW2 2804   3.161   0.670   0.836  0.3550  1.8827  0.6276
  875SOL     OW 2805   3.065   3.787   2.975 -0.2764  0.4709  1.0516
  875SOL    HW1 2806   2.992   3.773   2.908  1.2728  0.8489 -0.7961
  875SOL    HW2 2807   3.027   3.835   3.054 -2.1814 -0.0319  0.5063
  876SOL     OW 2808   2.863   3.765   4.124 -0.2166 -0.3457  0.2970
  876SOL    HW1 2809   2.777   3.728   4.089  0.4094 -0.7288 -0.8895
  876SOL    HW2 2810   2.920   3.794   4.047  0.7512 -0.1838  1.0590
  877SOL     OW 2811   2.864   2.165   3.117 -0.5412 -0.0680  0.0172
  877SOL    HW1 2812   2.954   2.151   3.158 -1.2129 -0.3430  1.4823
  877SOL    HW2 2813   2.823   2.247   3.157 -1.1559 -0.2442 -0.2476
  878SOL     OW 2814   3.686   3.657   1.335  0.1078  0.0918 -0.5847
  878SOL    HW1 2815   3.758   3.726   1.322 -1.0690  1.0482 -2.6367
  878SOL    HW2 2816   3.637   3.676   1.421 -0.9242  2.6406 -1.6185
  879SOL     OW 2817   2.351   2.355   3.981  0.1702 -0.2985  0.3409
  879SOL    HW1 2818   2.411   2.302   3.921  0.1617  0.7186 -0.5963
  879SOL    HW2 2819   2.258   2.355   3.945  0.1781  0.3778  0.2906
  880SOL     OW 2820   0.426   3.644   1.594 -0.2758  0.4272  0.0879
  880SOL    HW1 2821   0.423   3.589   1.678 -0.3828 -1.4613 -1.0824
  880SOL    HW2 2822   0.373   3.728   1.608 -0.8161 -0.1427  1.7095
  881SOL     OW 2823   1.600   2.027   3.394 -0.0812 -0.5677  0.2903
  881SOL    HW1 2824   1.675   1.981   3.347 -2.1340 -2.3782 -1.4911
  881SOL    HW2 2825   1.622   2.036   3.491  2.0063 -1.9402  0.0043
  882SOL     OW 2826   0.079   0.553   2.403  0.4355 -0.0048  0.1331
  882SOL    HW1 2827   0.085   0.652   2.397 -1.2668  0.1521  0.4866
  882SOL    HW2 2828   0.108   0.523   2.494  0.0406  0.2765  0.3553
  883SOL     OW 2829   1.596   3.286   2.085  0.7656 -0.5015 -0.6477
  883SOL    HW1 2830   1.633   3.365   2.036 -0.1035  0.0770 -0.4009
  883SOL    HW2 2831   1.598   3.305   2.183 -0.7798 -0.1480 -0.6483
  884SOL     OW 2832   1.041   1.773   1.131 -0.3181 -0.0624  0.0350
  884SOL    HW1 2833   0.981   1.753   1.209  0.7522  0.3144  0.9885
  884SOL    HW2 2834   1.003   1.849   1.079 -0.9725 -0.2212  0.2666
  885SOL     OW 2835   1.011   3.458   2.018 -0.2016 -0.2119  0.1710
  885SOL    HW1 2836   0.964   3.423   1.937  0.7427 -1.4236  0.1046
  885SOL    HW2 2837   1.093   3.402   2.035  1.7467  2.3374 -0.2423
  886SOL     OW 2838   4.226   0.500   0.770  0.5033 -0.8191 -0.0279
  886SOL    HW1 2839   4.134   0.483   0.806  0.2571  0.4690  0.0181
  886SOL    HW2 2840   4.218   0.535   0.676  0.9672 -1.0936 -0.1708
  887SOL     OW 2841   2.346   0.917   0.783 -0.2740  0.5192 -0.1887
  887SOL    HW1 2842   2.410   0.863   0.837 -0.4716 -0.3902 -0.8518
  887SOL    HW2 2843   2.381   0.926   0.690 -1.2445 -0.2478 -0.6428
  888SOL     OW 2844   1.256   2.771   3.709  0.2818 -0.2458  0.2456
  888SOL    HW1 2845   1.330   2.740   3.648 -0.7890 -1.5272 -0.4479
  888SOL    HW2 2846   1.287   2.852   3.759  2.7939 -1.7243  1.2775
  889SOL     OW 2847   0.687   2.131   2.761 -0.9270  0.2070  0.2274
  889SOL    HW1 2848   0.693   2.157   2.858 -0.5959 -1.1890  0.6176
  889SOL    HW2 2849   0.646   2.040   2.755 -0.1941 -0.0628 -0.8925
  890SOL     OW 2850   0.281   2.182   2.961  0.0648  0.1200  0.2996
  890SOL    HW1 2851   0.277   2.136   2.872 -0.7173  1.0380 -0.1553
  890SOL    HW2 2852   0.189   2.209   2.988  0.2049 -0.6955  1.7041
  891SOL     OW 2853   4.252   1.809   1.042 -0.0962  0.4174 -0.3994
  891SOL    HW1 2854   4.164   1.772   1.011  0.2391 -0.3728 -0.4392
  891SOL    HW2 2855   4.269   1.778   1.136  0.8190 -0.7079 -0.9043
  892SOL     OW 2856   3.482   1.114   0.873 -0.2209  0.1571 -0.1464
  892SOL    HW1 2857   3.440   1.119   0.964 -0.4511  0.6288 -0.2789
  892SOL    HW2 2858   3.441   1.038   0.823 -0.2711  0.0513  0.0528
  893SOL     OW 2859   2.152   0.141   2.489  0.1325 -0.2027  0.1969
  893SOL    HW1 2860   2.184   0.127   2.396  0.2016 -1.0410  0.3413
  893SOL    HW2 2861   2.078   0.077   2.508 -0.8413  0.9211  0.2564
  894SOL     OW 2862   3.342   1.102   2.639 -0.1203 -0.5695  0.1046
  894SOL    HW1 2863   3.246   1.097   2.669  0.6809 -1.1170  2.9015
  894SOL    HW2 2864   3.385   1.012   2.654  1.2752  0.1721  0.7064
  895SOL     OW 2865   2.294   4.198   1.229  0.2981 -0.0153  0.3126
  895SOL    HW1 2866   2.266   4.180   1.323  0.5290  0.7756  0.5456
  895SOL    HW2 2867   2.215   4.227   1.176 -0.2322 -2.3557 -0.2658
  896SOL     OW 2868   0.473   3.789   1.262  0.2837 -0.0580  0.0310
  896SOL    HW1 2869   0.392   3.789   1.204  0.1671  0.2513  0.1900
  896SOL    HW2 2870   0.464   3.861   1.331  1.2265  0.7997 -0.7039
  897SOL     OW 2871   1.141   3.699   0.799  0.0743  0.1829 -0.4901
  897SOL    HW1 2872   1.084   3.629   0.842  0.4614  1.4322  2.2473
  897SOL    HW2 2873   1.222   3.716   0.855  0.9372  1.5484 -2.0327
  898SOL     OW 2874   2.210   2.845   4.213 -0.6590  0.2532 -0.2946
  898SOL    HW1 2875   2.161   2.907   4.152  0.5029  0.5488 -0.9609
  898SOL    HW2 2876   2.220   2.756   4.168 -3.1079 -0.7855  1.0067
  899SOL     OW 2877   1.885   2.998   2.224  0.6970 -0.2844 -0.1342
  899SOL    HW1 2878   1.878   3.076   2.285  2.8198 -0.3119  0.2383
  899SOL    HW2 2879   1.903   2.915   2.278  0.3222 -0.7092 -0.6448
  900SOL     OW 2880   2.532   3.452   0.550 -0.4431  0.2733  0.1231
  900SOL    HW1 2881   2.517   3.380   0.482  0.6257  0.3740 -0.2307
  900SOL    HW2 2882   2.624   3.444   0.586 -0.2023  1.6632 -0.1458
  901SOL     OW 2883   2.428   2.210   1.179 -0.4540 -0.4160  0.7187
  901SOL    HW1 2884   2.463   2.294   1.137 -0.0546 -0.2667  1.3425
  901SOL    HW2 2885   2.359   2.234   1.247 -0.2924 -0.5904  0.9450
  902SOL     OW 2886   1.055   3.740   3.663 -0.1055 -0.6254  0.7261
  902SOL    HW1 2887   1.086   3.815   3.721  0.5764  0.7337 -1.2822
  902SOL    HW2 2888   0.960   3.719   3.684 -1.1165  2.4636 -0.1982
  903SOL     OW 2889   3.857   3.438   3.424 -0.0039  0.2405 -0.0380
  903SOL    HW1 2890   3.839   3.455   3.521 -3.2426 -1.3684 -0.2157
  903SOL    HW2 2891   3.881   3.342   3.411  0.5086  0.4634 -0.8265
  904SOL     OW 2892   3.604   0.405   0.876  0.2259  0.3246  0.1407
  904SOL    HW1 2893   3.589   0.486   0.933 -1.8264  0.5515 -0.6450
  904SOL    HW2 2894   3.680   0.352   0.914  1.5898  2.5585  0.7097
  905SOL     OW 2895   0.555   2.116   1.323  0.2610  0.5521 -0.1294
  905SOL    HW1 2896   0.564   2.209   1.357  0.9515  0.3451  0.2572
  905SOL    HW2 2897   0.610   2.105   1.241 -0.5910  0.7541 -0.7457
  906SOL     OW 2898   2.924   1.989   2.451  0.4335  0.0851  0.2191
  906SOL    HW1 2899   2.837   1.983   2.500  0.9506 -0.2202  1.1453
  906SOL    HW2 2900   2.927   2.074   2.399 -0.8448 -0.4134 -0.6998
  907SOL     OW 2901   0.120   3.938   3.378 -0.0698  0.1754 -0.3444
  907SOL    HW1 2902   0.050   3.969   3.442 -0.7044  0.7073 -1.2749
  907SOL    HW2 2903   0.112   3.990   3.292  1.9989  0.8773 -0.1862
  908SOL     OW 2904   0.870   2.229   1.351 -0.1070 -0.1130 -0.1872
  908SOL    HW1 2905   0.856   2.294   1.426 -1.3314  0.5971 -1.0060
  908SOL    HW2 2906   0.941   2.164   1.377 -0.2421  0.3516  1.4341
  909SOL     OW 2907   0.864   1.077   3.507 -0.3523  0.0689 -0.2098
  909SOL    HW1 2908   0.930   1.085   3.432 -1.1163 -0.7785 -1.0199
  909SOL    HW2 2909   0.785   1.135   3.486  0.1678  1.1835  0.8186
  910SOL     OW 2910   2.450   3.873   3.581  0.1256  0.1835 -0.6952
  910SOL    HW1 2911   2.372   3.876   3.520 -0.0987 -1.1120 -0.5003
  910SOL    HW2 2912   2.519   3.811   3.544 -0.3259 -1.2115  0.6985
  911SOL     OW 2913   4.033   2.725   1.954  0.2573  0.1044 -0.3367
  911SOL    HW1 2914   4.096   2.784   1.904 -0.8044  0.2675 -1.5267
  911SOL    HW2 2915   3.962   2.691   1.892 -0.9749  0.1080  0.9967
  912SOL     OW 2916   2.951   3.919   3.169  0.6660 -0.3463  0.6603
  912SOL    HW1 2917   2.854   3.897   3.159  1.1583 -2.5673  0.3536
  912SOL    HW2 2918   2.965   4.015   3.144 -1.6751  0.5199  2.3174
  913SOL     OW 2919   2.369   2.535   2.828  0.8552 -0.3719 -0.5400
  913SOL    HW1 2920   2.437   2.523   2.900  0.3370 -0.6149 -0.0854
  913SOL    HW2 2921   2.414   2.572   2.746  1.9384 -2.4289 -0.9450
  914SOL     OW 2922   0.889   3.676   3.209 -0.4260 -0.8211  0.0883
  914SOL    HW1 2923   0.967   3.738   3.214  0.6144 -2.1039  0.2713
  914SOL    HW2 2924   0.909   3.594   3.262 -1.6735 -1.4302 -0.3433
  915SOL     OW 2925   2.718   3.686   0.425 -0.1330 -0.3707 -0.8983
  915SOL    HW1 2926   2.674   3.611   0.375  0.6731 -1.4051 -0.0936
  915SOL    HW2 2927   2.808   3.657   0.457  0.2270  0.9707 -0.6190
  916SOL     OW 2928   1.797   3.448   3.380 -0.6594 -0.6804 -0.5434
  916SOL    HW1 2929   1.723   3.381   3.393 -0.3374 -1.2607 -1.5186
  916SOL    HW2 2930   1.803   3.470   3.283 -0.1100  0.0203 -0.3533
  917SOL     OW 2931   1.392   3.138   4.092  0.2942 -0.3508  0.2817
  917SOL    HW1 2932   1.298   3.157   4.066  0.3372  1.5045  1.3522
  917SOL    HW2 2933   1.393   3.082   4.175  0.1634 -1.2509 -0.3089
  918SOL     OW 2934   2.341   3.981   0.511 -0.0570  0.6725  0.2123
  918SOL    HW1 2935   2.382   3.931   0.587 -0.7559 -0.5101 -0.1547
  918SOL    HW2 2936   2.364   4.078   0.518 -0.2251  0.6068  1.9937
  919SOL     OW 2937   2.416   3.705   0.242  0.2099  0.0060  0.5833
  919SOL    HW1 2938   2.472   3.782   0.270 -0.1963  0.6182 -0.2501
  919SOL    HW2 2939   2.350   3.684   0.315  0.2953  0.4678  0.7951
  920SOL     OW 2940   0.680   3.218   4.024 -0.3292 -0.0687  0.3892
  920SOL    HW1 2941   0.717   3.229   4.116 -0.6123 -1.1565  0.6472
  920SOL    HW2 2942   0.594   3.168   4.029  0.1407 -1.0221 -0.5427
  921SOL     OW 2943   2.947   3.725   0.146  0.4682  0.5191  0.0858
  921SOL    HW1 2944   2.900   3.639   0.164  1.7047  0.0071  0.9769
  921SOL    HW2 2945   2.920   3.759   0.055 -1.2930  0.0672  0.4163
  922SOL     OW 2946   2.936   1.661   2.832  0.4220  0.3667  0.4281
  922SOL    HW1 2947   2.850   1.701   2.862 -0.9071 -1.9865 -0.0313
  922SOL    HW2 2948   2.961   1.586   2.892 -1.2196 -3.0912 -2.8289
  923SOL     OW 2949   1.932   2.738   0.193 -0.4982  0.1602  0.4919
  923SOL    HW1 2950   1.929   2.678   0.112  2.0711  0.2738  0.2229
  923SOL    HW2 2951   1.875   2.698   0.265 -0.3454 -1.6301 -0.3167
  924SOL     OW 2952   0.993   3.139   2.300  0.1342 -0.4919  0.1587
  924SOL    HW1 2953   0.994   3.046   2.336  0.2407 -0.6919 -0.3549
  924SOL    HW2 2954   1.087   3.167   2.278  0.2111  0.0791  1.1772
  925SOL     OW 2955   2.291   0.026   3.823  0.0840 -0.3717  0.2019
  925SOL    HW1 2956   2.347   0.108   3.836  0.5911 -0.1140 -2.8200
  925SOL    HW2 2957   2.343  -0.041   3.769 -0.9359 -2.0172  1.1768
  926SOL     OW 2958   1.345   3.717   0.304 -0.5067  0.1786 -0.3000
  926SOL    HW1 2959   1.286   3.730   0.383 -0.2190  0.0131 -0.0544
  926SOL    HW2 2960   1.292   3.728   0.220 -0.4887  2.0346 -0.1082
  927SOL     OW 2961   2.755   2.431   2.153  0.0310 -0.0562  0.3617
  927SOL    HW1 2962   2.844   2.477   2.163  0.4748 -1.2518  2.3747
  927SOL    HW2 2963   2.699   2.452   2.233 -0.2475 -1.9131  0.6874
  928SOL     OW 2964   1.153   3.724   0.541  0.1476 -0.3724  0.3898
  928SOL    HW1 2965   1.158   3.717   0.640 -2.8984  1.4122  0.8054
  928SOL    HW2 2966   1.111   3.641   0.505 -0.5472 -0.2337  0.8553
  929SOL     OW 2967   4.234   4.051   2.845 -0.1670 -0.0637  0.0905
  929SOL    HW1 2968   4.225   3.958   2.807 -0.3415 -1.1672  2.6663
  929SOL    HW2 2969   4.330   4.078   2.843  0.2042 -1.2239  1.3110
  930SOL     OW 2970   4.218   2.890   1.850  0.3501 -0.2576  0.4423
  930SOL    HW1 2971   4.230   2.989   1.849 -0.7359 -0.1130  0.5626
  930SOL    HW2 2972   4.272   2.850   1.776 -0.0660  0.5432 -0.3178
  931SOL     OW 2973   1.671   0.519   0.145  0.3968  0.6425  0.4372
  931SOL    HW1 2974   1.585   0.468   0.144  0.4720  0.5072  0.7915
  931SOL    HW2 2975   1.728   0.487   0.069  0.9754 -0.7367  1.4201
  932SOL     OW 2976   3.851   2.265   0.643  0.4776  0.0335  0.2067
  932SOL    HW1 2977   3.882   2.188   0.698 -0.2500 -0.3629  0.0629
  932SOL    HW2 2978   3.830   2.342   0.704 -1.6118 -0.8257  0.6394
  933SOL     OW 2979   3.534   4.153   1.560  0.0284  0.0835  0.3559
  933SOL    HW1 2980   3.446   4.129   1.601 -0.3436 -0.6997 -0.8694
  933SOL    HW2 2981   3.552   4.094   1.482  2.5518 -1.1255  1.7004
  934SOL     OW 2982   3.594   3.965   2.391 -0.1268 -0.1087 -0.1364
  934SOL    HW1 2983   3.641   3.915   2.464  0.8218  0.3708 -0.4002
  934SOL    HW2 2984   3.496   3.945   2.395 -0.0155 -0.4886  0.9418
  935SOL     OW 2985   2.199   3.376   2.651  0.0432  0.5743 -0.1962
  935SOL    HW1 2986   2.146   3.305   2.604  0.6172  0.3716 -0.5396
  935SOL    HW2 2987   2.227   3.446   2.585  0.3796  0.5758 -0.0544
  936SOL     OW 2988   2.140   1.661   0.479 -0.1851  0.1315 -0.0926
  936SOL    HW1 2989   2.223   1.613   0.510 -0.7356  0.3310  1.8226
  936SOL    HW2 2990   2.079   1.595   0.435 -0.8373 -0.9869  2.3132
  937SOL     OW 2991   1.776   1.857   2.783 -0.0051  0.6517 -0.0465
  937SOL    HW1 2992   1.816   1.948   2.773 -0.3397  0.6085 -2.2645
  937SOL    HW2 2993   1.678   1.866   2.803 -0.2512  0.8110 -1.2644
  938SOL     OW 2994   1.818   2.543   2.186 -0.0586  0.0822  0.3780
  938SOL    HW1 2995   1.884   2.600   2.233  0.7593 -1.9934  1.9048
  938SOL    HW2 2996   1.841   2.540   2.088  1.8277 -0.2087  0.7945
  939SOL     OW 2997   0.252   2.579   3.100  0.1575 -0.2720  0.0069
  939SOL    HW1 2998   0.167   2.554   3.054  0.4279 -2.1448  0.4551
  939SOL    HW2 2999   0.321   2.509   3.082  0.6450 -0.4309  2.2279
  940SOL     OW 3000   3.617   4.023   1.337 -0.2686  0.4489  0.3275
  940SOL    HW1 3001   3.715   4.039   1.323 -0.2475 -0.8994 -1.4803
  940SOL    HW2 3002   3.567   4.060   1.259 -1.2374  1.1569  1.2560
  941SOL     OW 3003   2.771   3.105   2.741 -0.0042  0.2056 -0.5092
  941SOL    HW1 3004   2.851   3.164   2.734  0.3587  0.1951  2.3299
  941SOL    HW2 3005   2.701   3.152   2.795 -0.0394 -1.5451  1.0664
  942SOL     OW 3006   2.236   1.758   2.572  0.2281 -0.5125  0.3169
  942SOL    HW1 3007   2.291   1.725   2.495  0.7253  0.0749  0.4116
  942SOL    HW2 3008   2.141   1.728   2.560  0.2751 -0.3275 -0.5860
  943SOL     OW 3009   2.247   4.095   3.041 -0.3919  0.2916  0.2310
  943SOL    HW1 3010   2.327   4.072   2.984 -0.8637 -4.2298  1.0480
  943SOL    HW2 3011   2.165   4.094   2.983 -0.2950  1.2524  0.0606
  944SOL     OW 3012   1.912   3.163   3.238  0.0912  0.2486  0.6271
  944SOL    HW1 3013   1.824   3.133   3.202  0.2365  0.6686 -0.0974
  944SOL    HW2 3014   1.977   3.087   3.234  0.0834  0.2663  0.0628
  945SOL     OW 3015   2.317   1.489   0.566 -1.2138 -0.2650  0.2055
  945SOL    HW1 3016   2.410   1.454   0.553  0.3662  2.7373  2.1672
  945SOL    HW2 3017   2.270   1.432   0.633 -0.2988 -1.0575  0.1983
  946SOL     OW 3018   3.774   2.218   0.958  0.0947  0.2401  0.5290
  946SOL    HW1 3019   3.838   2.142   0.951 -1.7059 -1.3181  0.2019
  946SOL    HW2 3020   3.681   2.182   0.970 -0.5710  2.4217  2.8727
  947SOL     OW 3021   2.058   1.601   2.372  0.0033  0.2888  0.3516
  947SOL    HW1 3022   2.029   1.636   2.283 -0.4890  0.6733  0.6523
  947SOL    HW2 3023   2.130   1.533   2.359 -0.5332 -0.1542 -0.3785
  948SOL     OW 3024   0.703   2.425   2.555  0.3504  0.7691 -0.6868
  948SOL    HW1 3025   0.798   2.398   2.568  0.2336 -0.6042 -2.2340
  948SOL    HW2 3026   0.661   2.444   2.644  2.6130  3.6353 -0.0906
  949SOL     OW 3027   1.537   3.748   2.482 -0.1012  0.2260  0.1979
  949SOL    HW1 3028   1.486   3.773   2.564  0.2817  2.8905 -0.2762
  949SOL    HW2 3029   1.516   3.814   2.410  0.3677 -1.4423 -1.5380
  950SOL     OW 3030   2.690   0.253   3.758 -0.2007  0.0608  0.1482
  950SOL    HW1 3031   2.648   0.274   3.846 -0.0936 -1.7432  0.6814
  950SOL    HW2 3032   2.619   0.249   3.687 -0.3028  1.3917  0.1500
  951SOL     OW 3033   2.509   0.931   4.243  0.1751 -0.3949 -0.0511
  951SOL    HW1 3034   2.563   0.961   4.322  0.1892 -0.1037 -0.1698
  951SOL    HW2 3035   2.513   1.002   4.172 -0.2572 -0.4302 -0.1128
  952SOL     OW 3036   1.242   1.205   3.388  0.2998 -0.1297  0.4269
  952SOL    HW1 3037   1.202   1.295   3.372  1.8761  0.3414 -1.2947
  952SOL    HW2 3038   1.270   1.198   3.484  2.2681  2.1849  0.1173
  953SOL     OW 3039   1.061   0.593   0.553 -0.5295  0.1815 -0.3844
  953SOL    HW1 3040   1.133   0.589   0.623 -0.2630 -0.9548 -0.6902
  953SOL    HW2 3041   1.031   0.687   0.542  3.1075  1.3076 -2.4016
  954SOL     OW 3042   0.840   3.255   3.080  0.3815  0.2617 -0.1116
  954SOL    HW1 3043   0.753   3.288   3.116  0.5732  0.0439  0.5784
  954SOL    HW2 3044   0.824   3.172   3.026  0.2149 -0.1212  0.5076
  955SOL     OW 3045   3.045   2.349   0.318  0.3244 -0.2860 -0.4691
  955SOL    HW1 3046   3.124   2.288   0.323 -0.1765 -0.9192 -0.2424
  955SOL    HW2 3047   3.000   2.337   0.229  1.3376  1.1674 -1.2342
  956SOL     OW 3048   0.145   0.093   1.694 -0.0507  0.6338  0.2322
  956SOL    HW1 3049   0.067   0.061   1.640 -0.6472 -0.0884  1.4814
  956SOL    HW2 3050   0.141   0.052   1.785  2.3998 -0.2678  0.0018
  957SOL     OW 3051   0.840   2.655   2.818  0.2870 -0.0531  0.6356
  957SOL    HW1 3052   0.789   2.732   2.779 -0.3715 -0.5557  0.4992
  957SOL    HW2 3053   0.911   2.627   2.752 -0.6199 -0.6963 -0.1008
  958SOL     OW 3054   0.752   0.047   3.623  0.7930  0.3835 -0.4438
  958SOL    HW1 3055   0.729  -0.020   3.553 -0.4875 -0.8490  1.0655
  958SOL    HW2 3056   0.845   0.029   3.656  0.8864  0.1008 -0.8576
  959SOL     OW 3057   0.955   2.330   1.876 -0.0849  0.0011  0.1079
  959SOL    HW1 3058   0.905   2.266   1.934  0.7616 -2.4404 -1.6697
  959SOL    HW2 3059   1.020   2.381   1.931 -0.4595 -1.0064  1.5338
  960SOL     OW 3060   1.617   2.762   3.812 -0.0630  0.3235 -0.1708
  960SOL    HW1 3061   1.540   2.765   3.748  0.0695 -0.3480 -0.3674
  960SOL    HW2 3062   1.651   2.668   3.818  0.9847  0.6837 -0.3731
  961SOL     OW 3063   3.290   2.175   2.094 -0.6428  0.5346  0.2210
  961SOL    HW1 3064   3.358   2.149   2.163 -0.9919 -0.1863  0.2999
  961SOL    HW2 3065   3.225   2.100   2.082 -0.6863  0.7167 -0.7750
  962SOL     OW 3066   3.743   0.620   0.040 -0.1708  0.6060  0.5672
  962SOL    HW1 3067   3.694   0.575  -0.034  0.7107 -0.4858  0.6184
  962SOL    HW2 3068   3.762   0.553   0.112  2.8207  0.5143 -0.1698
  963SOL     OW 3069   3.963   3.622   1.971 -0.4807  0.3583  0.1524
  963SOL    HW1 3070   4.028   3.669   2.030 -1.2900  0.6991  0.7767
  963SOL    HW2 3071   3.881   3.597   2.023  0.0396 -2.0605 -0.0385
  964SOL     OW 3072   3.865   1.381   2.687  0.2203  0.3441 -0.1905
  964SOL    HW1 3073   3.813   1.356   2.769  1.3698 -2.0799 -0.1173
  964SOL    HW2 3074   3.802   1.417   2.618 -1.2440 -0.5537  0.6352
  965SOL     OW 3075   4.012   3.740   3.040  0.3811 -0.3602  1.1062
  965SOL    HW1 3076   4.002   3.653   3.089  0.3034 -1.7477 -1.2568
  965SOL    HW2 3077   4.109   3.758   3.026  0.3650 -1.2512 -0.3347
  966SOL     OW 3078   1.220   1.953   2.320  0.1299 -0.5732  0.1131
  966SOL    HW1 3079   1.290   1.968   2.250 -0.0952  0.8139  0.1554
  966SOL    HW2 3080   1.130   1.973   2.281 -0.0894 -0.8111  0.4980
  967SOL     OW 3081   0.059   3.820   0.852  0.1673 -0.2853 -1.1460
  967SOL    HW1 3082   0.099   3.850   0.766 -0.5058  0.4071 -1.2281
  967SOL    HW2 3083  -0.022   3.765   0.834  0.1027 -0.2550 -0.9568
  968SOL     OW 3084   2.183   3.267   3.400 -0.0066 -0.1948 -0.1099
  968SOL    HW1 3085   2.151   3.307   3.486  0.2063 -2.3554  1.0611
  968SOL    HW2 3086   2.133   3.307   3.324 -1.9522  0.0788  1.2367
  969SOL     OW 3087   3.740   2.632   0.133 -0.4017  0.8470  0.0561
  969SOL    HW1 3088   3.834   2.664   0.152 -0.2166 -0.1474  0.8971
  969SOL    HW2 3089   3.685   2.710   0.104  0.2797  1.7738  1.1417
  970SOL     OW 3090   3.312   0.274   3.373 -0.6851 -0.3500  0.3505
  970SOL    HW1 3091   3.299   0.311   3.282 -0.1761 -0.7839  0.0945
  970SOL    HW2 3092   3.372   0.194   3.368  1.4714  1.0943  1.3392
  971SOL     OW 3093   2.785   1.355   3.212  0.6119 -0.0400  0.1970
  971SOL    HW1 3094   2.747   1.275   3.259  1.2426 -0.8148 -0.6005
  971SOL    HW2 3095   2.828   1.415   3.280 -1.1666  0.4021  1.0078
  972SOL     OW 3096   1.491   3.520   0.175  0.3368  0.3669 -0.6167
  972SOL    HW1 3097   1.436   3.595   0.214 -0.3776 -0.7396  0.5818
  972SOL    HW2 3098   1.508   3.540   0.079 -1.3935  1.2170 -0.8058
  973SOL     OW 3099   1.133   2.051   1.847 -0.6499  0.4561 -0.4348
  973SOL    HW1 3100   1.065   2.124   1.852 -0.1007  0.9065  1.4355
  973SOL    HW2 3101   1.221   2.086   1.878 -0.4688 -1.0833  0.9213
  974SOL     OW 3102   2.043   3.363   0.628 -0.3067 -0.0223 -0.0028
  974SOL    HW1 3103   2.023   3.450   0.582 -0.9996  0.3224  0.9210
  974SOL    HW2 3104   2.127   3.373   0.681 -1.7550  0.9920  2.2684
  975SOL     OW 3105   2.924   3.044   1.823  0.4674 -0.4674  0.2256
  975SOL    HW1 3106   2.833   3.052   1.781  0.1818  0.0435  0.9017
  975SOL    HW2 3107   2.939   2.950   1.851  0.3505 -0.6568 -0.3417
  976SOL     OW 3108   1.727   2.469   3.063  0.1245 -0.2458  0.1108
  976SOL    HW1 3109   1.629   2.481   3.050  0.1351  2.5395  1.6965
  976SOL    HW2 3110   1.743   2.397   3.130 -0.8393 -0.5935 -0.0233
  977SOL     OW 3111   1.161   0.342   1.516  0.3272 -0.0993  0.2645
  977SOL    HW1 3112   1.178   0.397   1.434 -0.9982 -0.0125  0.0239
  977SOL    HW2 3113   1.162   0.246   1.491  1.3438 -0.1337  0.4289
  978SOL     OW 3114   4.068   2.484   0.937  0.2785 -0.1717  0.1858
  978SOL    HW1 3115   3.981   2.502   0.892  1.3995  2.1673 -1.2499
  978SOL    HW2 3116   4.106   2.399   0.903 -0.3630 -0.0056 -0.9795
  979SOL     OW 3117   2.996   3.766   3.425  0.6363 -0.0055 -0.0041
  979SOL    HW1 3118   2.922   3.764   3.491  1.5692 -0.8666  1.0418
  979SOL    HW2 3119   2.973   3.832   3.352  0.5362  2.6913  2.2814
  980SOL     OW 3120   3.013   3.321   1.760 -0.5586  0.4009  0.0321
  980SOL    HW1 3121   2.970   3.236   1.791 -0.4692  0.7444  1.1464
  980SOL    HW2 3122   3.020   3.320   1.660 -1.1559 -0.6095 -0.0128
  981SOL     OW 3123   2.010   1.667   2.120  0.3671 -0.3121  0.0108
  981SOL    HW1 3124   1.953   1.681   2.039 -0.5965  2.5113  1.0515
  981SOL    HW2 3125   2.101   1.637   2.091  0.8810  3.0560 -2.4283
  982SOL     OW 3126   1.005   4.227   0.816 -0.7717  0.1650 -0.9061
  982SOL    HW1 3127   0.986   4.131   0.833 -2.3140  0.0955 -2.7718
  982SOL    HW2 3128   1.104   4.243   0.823 -0.6591 -1.0974  1.3370
  983SOL     OW 3129   0.738   0.942   0.467 -0.0852 -0.0816 -0.0648
  983SOL    HW1 3130   0.683   0.948   0.384 -0.7588 -1.1202  0.2877
  983SOL    HW2 3131   0.710   1.015   0.530 -0.2263  0.1262 -0.3650
  984SOL     OW 3132   3.481   3.880   1.815 -0.0595  0.6077 -0.8428
  984SOL    HW1 3133   3.388   3.910   1.835 -0.2489 -0.5039  0.1306
  984SOL    HW2 3134   3.513   3.823   1.891  1.0361  0.1378 -1.6349
  985SOL     OW 3135   1.661   1.975   1.448 -0.0554  0.4019  0.4377
  985SOL    HW1 3136   1.719   2.055   1.431  0.7976 -0.0484  1.1365
  985SOL    HW2 3137   1.606   1.956   1.367  0.9770  0.6912 -0.3509
  986SOL     OW 3138   2.771   2.724   2.396 -0.6646 -0.3126 -0.4171
  986SOL    HW1 3139   2.758   2.634   2.355 -1.7917 -0.7202  0.7761
  986SOL    HW2 3140   2.760   2.717   2.495 -2.0701  1.3386 -0.4038
  987SOL     OW 3141   1.183   3.563   3.503  0.1438 -0.3649 -0.3137
  987SOL    HW1 3142   1.140   3.626   3.568  0.8646 -1.5564  1.4258
  987SOL    HW2 3143   1.116   3.535   3.435 -0.3846  1.6623 -0.6721
  988SOL     OW 3144   3.274   1.876   0.673 -0.2735  0.3038  0.3010
  988SOL    HW1 3145   3.243   1.868   0.768 -1.8275 -0.3981 -0.2372
  988SOL    HW2 3146   3.220   1.815   0.616 -0.0271  1.4555 -1.2017
  989SOL     OW 3147   2.929   1.506   3.403  0.4348 -0.2541 -0.2811
  989SOL    HW1 3148   3.022   1.482   3.430 -0.3967 -2.1843  1.1488
  989SOL    HW2 3149   2.928   1.597   3.362  2.4441  1.3545  2.8808
  990SOL     OW 3150   3.630   4.190   3.478 -0.2051 -0.1737 -0.0016
  990SOL    HW1 3151   3.586   4.100   3.477 -0.8580  0.1432 -1.1573
  990SOL    HW2 3152   3.728   4.179   3.458 -0.0922 -0.7092  0.8078
  991SOL     OW 3153   1.097   3.662   1.799 -0.5587 -0.1166  1.4168
  991SOL    HW1 3154   1.024   3.626   1.740 -0.3659  1.7461 -0.0424
  991SOL    HW2 3155   1.058   3.728   1.862 -0.2302  0.4733  1.0069
  992SOL     OW 3156   1.591   2.390   2.149  0.0216 -0.0856 -0.0136
  992SOL    HW1 3157   1.583   2.309   2.207  0.1844  0.4492  0.7732
  992SOL    HW2 3158   1.674   2.440   2.174  1.4020 -1.0735 -2.3069
  993SOL     OW 3159   3.078   3.007   4.011  0.3299  0.7447  0.4920
  993SOL    HW1 3160   2.997   3.061   3.989  0.0934  0.1867 -0.0322
  993SOL    HW2 3161   3.065   2.913   3.977  2.2351  1.2735 -1.9383
  994SOL     OW 3162   1.632   3.317   2.369 -0.1506 -0.6799  0.3719
  994SOL    HW1 3163   1.562   3.304   2.439  0.1279 -0.3138  0.7217
  994SOL    HW2 3164   1.666   3.411   2.373 -1.2481 -0.1502 -1.2935
  995SOL     OW 3165   3.911   1.988   0.839  0.0038 -0.7234  0.0168
  995SOL    HW1 3166   3.998   1.951   0.805 -0.0191 -1.1246  0.3879
  995SOL    HW2 3167   3.836   1.936   0.800 -0.1481  0.3655 -1.2534
  996SOL     OW 3168   1.478   2.161   2.965  0.3125  0.4051 -0.3203
  996SOL    HW1 3169   1.397   2.106   2.945  0.4495 -0.3139  0.9986
  996SOL    HW2 3170   1.513   2.199   2.880  0.4086 -1.8086 -1.3437
  997SOL     OW 3171   3.917   0.790   2.299  0.1191  0.0297  0.3935
  997SOL    HW1 3172   3.893   0.694   2.314  6.0334 -1.8844  0.4206
  997SOL    HW2 3173   3.925   0.807   2.201  2.8663 -0.9588  0.3476
  998SOL     OW 3174   1.663   0.220   0.048  0.6037 -0.4428 -0.4818
  998SOL    HW1 3175   1.578   0.171   0.071  1.3412 -1.3373  0.4233
  998SOL    HW2 3176   1.726   0.155   0.005  1.5571 -0.2560  0.6224
  999SOL     OW 3177   3.076   1.646   0.664 -0.2311  0.4205  0.0355
  999SOL    HW1 3178   3.018   1.569   0.640 -0.1653  0.0481  1.0414
  999SOL    HW2 3179   3.068   1.665   0.761  0.4683  1.0913 -0.0227
 1000SOL     OW 3180   1.634   3.110   3.613  0.3502  0.0330  0.4033
 1000SOL    HW1 3181   1.731   3.102   3.591 -0.3732 -1.8242 -2.5175
 1000SOL    HW2 3182   1.610   3.040   3.680  0.5634 -1.1859 -0.7590
 1001SOL     OW 3183   2.555   4.235   2.581  0.5295  0.0598 -0.2526
 1001SOL    HW1 3184   2.472   4.272   2.621  0.4052  0.4999 -0.8969
 1001SOL    HW2 3185   2.538   4.140   2.553  0.2566  0.1288 -0.3265
 1002SOL     OW 3186   3.583   3.761   2.034  0.5421  0.8904  0.3249
 1002SOL    HW1 3187   3.656   3.695   2.052  0.5125  0.9191  0.5585
 1002SOL    HW2 3188   3.609   3.849   2.073  0.7719  1.1296 -0.3659
 1003SOL     OW 3189   0.962   4.202   1.959 -0.5373 -0.6449  0.1028
 1003SOL    HW1 3190   0.977   4.297   1.931  0.5721 -0.6197  0.7244
 1003SOL    HW2 3191   1.047   4.165   1.997 -1.0121 -1.8263  0.0665
 1004SOL     OW 3192   1.604   3.006   2.207  0.2954 -0.0735 -1.2741
 1004SOL    HW1 3193   1.600   3.100   2.173 -0.3406 -0.0953 -1.2802
 1004SOL    HW2 3194   1.694   2.967   2.187  0.8462  0.7952 -0.5726
 1005SOL     OW 3195   0.948   2.495   1.140  0.4439 -0.3598 -1.0116
 1005SOL    HW1 3196   0.942   2.502   1.041 -2.5115  0.4886 -0.8816
 1005SOL    HW2 3197   0.855   2.497   1.179  1.5375  1.8744  1.9004
 1006SOL     OW 3198   0.289   1.208   2.072 -0.4426 -0.0813  0.5052
 1006SOL    HW1 3199   0.268   1.114   2.042  1.7988 -0.4316 -0.1965
 1006SOL    HW2 3200   0.226   1.271   2.027 -2.1670 -1.2387  1.1901
 1007SOL     OW 3201   4.009   4.094   2.192 -0.2340  0.1102 -0.3067
 1007SOL    HW1 3202   3.945   4.128   2.261 -0.2003 -0.2918 -0.0728
 1007SOL    HW2 3203   4.099   4.081   2.234 -0.7477 -2.3377  0.1984
 1008SOL     OW 3204   3.210   2.575   0.276 -0.2912 -0.0553  0.0954
 1008SOL    HW1 3205   3.307   2.581   0.298 -0.1966 -0.5846 -0.1721
 1008SOL    HW2 3206   3.178   2.482   0.294 -0.6036 -0.0479 -0.4032
 1009SOL     OW 3207   2.571   1.421   0.434  0.4925  0.1020  0.3661
 1009SOL    HW1 3208   2.505   1.451   0.365  1.8535 -0.2637 -1.1469
 1009SOL    HW2 3209   2.626   1.500   0.462  0.4720  0.0882  0.4455
 1010SOL     OW 3210   1.004   3.198   0.871 -0.1881  0.4910 -0.2173
 1010SOL    HW1 3211   1.053   3.158   0.948  0.8565  1.8838 -0.1149
 1010SOL    HW2 3212   1.020   3.144   0.789 -0.0461 -0.1418  0.2235
 1011SOL     OW 3213   3.040   0.366   0.592 -0.2582 -0.4616 -0.3141
 1011SOL    HW1 3214   3.132   0.387   0.623 -0.6998  1.4536 -0.1924
 1011SOL    HW2 3215   3.045   0.307   0.511  1.0165 -1.0853  0.1928
 1012SOL     OW 3216   2.842   2.969   2.518  0.0615 -0.9199 -0.3120
 1012SOL    HW1 3217   2.799   2.880   2.529  0.5178 -0.9497  1.7965
 1012SOL    HW2 3218   2.800   3.034   2.582  0.2837  0.1699 -1.2377
 1013SOL     OW 3219   0.928   1.666   2.429  0.1895  0.3542 -0.0863
 1013SOL    HW1 3220   1.020   1.653   2.393  0.1123 -0.6984  0.0682
 1013SOL    HW2 3221   0.861   1.645   2.359  0.0307 -2.1627  0.7161
 1014SOL     OW 3222   1.115   2.894   2.183 -0.5940  0.3481  0.0655
 1014SOL    HW1 3223   1.042   2.862   2.123  0.0045 -0.0027 -0.4962
 1014SOL    HW2 3224   1.161   2.815   2.223 -0.2987  0.5571  0.1388
 1015SOL     OW 3225   3.603   1.871   0.770  0.7652 -0.5634 -0.5734
 1015SOL    HW1 3226   3.568   1.929   0.697 -0.7574 -1.6763 -0.7803
 1015SOL    HW2 3227   3.529   1.849   0.833  1.3688 -2.0042 -0.3297
 1016SOL     OW 3228   2.982   1.412   2.993  0.2315  0.2783 -0.4203
 1016SOL    HW1 3229   2.917   1.375   3.059  0.6072  1.4236  0.6393
 1016SOL    HW2 3230   3.075   1.395   3.025  0.4152  1.6607 -0.1432
 1017SOL     OW 3231   0.630   0.130   1.028 -0.6740 -0.2816  0.1264
 1017SOL    HW1 3232   0.587   0.217   1.050 -3.8752 -1.7642  0.2011
 1017SOL    HW2 3233   0.597   0.098   0.939  0.9242 -1.1601 -0.1958
 1018SOL     OW 3234   1.342   2.701   3.269 -0.5137 -0.0338  0.3586
 1018SOL    HW1 3235   1.280   2.696   3.348  1.8988  3.1147  2.7025
 1018SOL    HW2 3236   1.341   2.794   3.233  4.3621  0.9650  2.0715
 1019SOL     OW 3237   2.683   3.015   0.402 -0.0001 -0.2111 -0.3321
 1019SOL    HW1 3238   2.609   3.081   0.411  0.0994 -0.3555  2.6679
 1019SOL    HW2 3239   2.718   3.016   0.309 -1.7294  2.0580 -1.0260
 1020SOL     OW 3240   3.788   2.667   2.308 -0.1582  0.6313  0.0218
 1020SOL    HW1 3241   3.697   2.708   2.317 -0.0731  0.8801 -0.2069
 1020SOL    HW2 3242   3.798   2.630   2.215  0.2386  1.2796 -0.2068
 1021SOL     OW 3243   1.542   3.566   4.185 -0.5329  0.1114  0.1897
 1021SOL    HW1 3244   1.481   3.626   4.134  1.3592  1.0679 -1.0332
 1021SOL    HW2 3245   1.558   3.483   4.133 -1.5907 -0.6372  1.0031
 1022SOL     OW 3246   3.398   3.387   2.926 -0.6265  0.3035  0.3328
 1022SOL    HW1 3247   3.480   3.396   2.983  0.7313  0.1359 -1.4884
 1022SOL    HW2 3248   3.395   3.462   2.861 -0.6188 -0.9286 -1.1611
 1023SOL     OW 3249   3.146   2.636   3.278  0.1833  0.2609  0.2056
 1023SOL    HW1 3250   3.088   2.624   3.198 -0.2869 -1.6825  0.7910
 1023SOL    HW2 3251   3.092   2.674   3.352  0.0868  0.0744  0.2312
 1024SOL     OW 3252   3.681   2.672   1.206 -0.4963  0.0396  0.0126
 1024SOL    HW1 3253   3.762   2.710   1.163 -0.8268 -0.7315 -1.3381
 1024SOL    HW2 3254   3.632   2.745   1.255  0.1601  0.8309 -0.4950
 1025SOL     OW 3255   2.333   1.398   2.207  0.1272 -0.7339 -0.0473
 1025SOL    HW1 3256   2.264   1.326   2.214  0.2655 -0.8288  0.3395
 1025SOL    HW2 3257   2.299   1.469   2.145 -1.4193  0.4371  2.0170
 1026SOL     OW 3258   2.921   2.609   0.934 -0.0932  0.0239 -0.0856
 1026SOL    HW1 3259   2.885   2.526   0.891 -0.6537 -0.2747  0.9233
 1026SOL    HW2 3260   3.004   2.637   0.887 -0.1975 -0.7997 -0.7839
 1027SOL     OW 3261   3.191   1.437   3.417  0.0480 -0.4401 -0.4975
 1027SOL    HW1 3262   3.268   1.495   3.445 -0.4590 -0.8059  1.8896
 1027SOL    HW2 3263   3.206   1.344   3.450 -1.1246 -0.6524 -0.5322
 1028SOL     OW 3264   1.036   1.876   1.666  0.0605  0.0316 -0.1451
 1028SOL    HW1 3265   0.995   1.786   1.680  1.8120 -0.8407 -0.3094
 1028SOL    HW2 3266   1.047   1.922   1.754 -0.4612 -0.0936 -0.0155
 1029SOL     OW 3267   0.582   0.019   0.789  0.8415 -0.3911  0.5263
 1029SOL    HW1 3268   0.657   0.059   0.736 -0.6056  0.4191 -0.9916
 1029SOL    HW2 3269   0.551  -0.065   0.745 -0.4088  0.3131  0.0165
 1030SOL     OW 3270   3.601   1.450   2.587  0.5202  0.0310 -0.4577
 1030SOL    HW1 3271   3.522   1.499   2.550 -1.2170 -3.3070 -1.4916
 1030SOL    HW2 3272   3.571   1.383   2.654  2.1171 -2.7446 -2.3256
 1031SOL     OW 3273   1.486   3.158   1.843 -0.1970 -0.0947 -0.1034
 1031SOL    HW1 3274   1.532   3.209   1.916 -2.6521  1.3964  0.5174
 1031SOL    HW2 3275   1.501   3.204   1.756 -1.0151  0.7804  0.2030
 1032SOL     OW 3276   1.677   2.408   1.264 -0.5285  0.0870  0.1815
 1032SOL    HW1 3277   1.633   2.496   1.245  1.5128  0.6159 -2.7439
 1032SOL    HW2 3278   1.621   2.334   1.226 -1.0603  0.3408  0.4714
 1033SOL     OW 3279   2.114   2.535   1.143  0.2593 -0.4866  0.2151
 1033SOL    HW1 3280   2.172   2.617   1.143 -0.2476 -0.0825  2.2075
 1033SOL    HW2 3281   2.037   2.549   1.205  0.1137 -2.4695  0.5497
 1034SOL     OW 3282   1.870   2.413   2.856  0.1643 -0.8911 -0.1160
 1034SOL    HW1 3283   1.810   2.436   2.933 -0.0177 -2.0924  0.1191
 1034SOL    HW2 3284   1.964   2.409   2.888  0.1348 -0.9964 -0.0416
 1035SOL     OW 3285   1.248   0.567   0.745  0.3307 -0.0448  0.3742
 1035SOL    HW1 3286   1.267   0.505   0.822  2.5979  0.4792  0.3055
 1035SOL    HW2 3287   1.238   0.660   0.780 -0.0958 -0.0123  0.1683
 1036SOL     OW 3288   4.197   2.059   1.314 -0.3259  0.1576  0.1624
 1036SOL    HW1 3289   4.159   2.077   1.224  1.6905 -1.3034 -1.0596
 1036SOL    HW2 3290   4.243   1.970   1.314  0.5194  0.5139  2.3749
 1037SOL     OW 3291   0.991   2.049   1.024 -0.2705  0.1457 -0.1042
 1037SOL    HW1 3292   1.056   2.110   1.069  1.2057 -1.8405  0.6431
 1037SOL    HW2 3293   0.996   2.061   0.925 -0.3476  1.5024  0.0443
 1038SOL     OW 3294   3.194   2.961   3.443 -0.8106 -0.1363  0.2015
 1038SOL    HW1 3295   3.285   2.930   3.417 -0.9910  2.1406 -4.1786
 1038SOL    HW2 3296   3.127   2.892   3.417 -0.5827 -0.1815 -0.2691
 1039SOL     OW 3297   0.195   3.361   2.968 -0.4101  0.2003  0.2064
 1039SOL    HW1 3298   0.185   3.401   2.877  0.0803  0.2913  0.1897
 1039SOL    HW2 3299   0.292   3.343   2.986 -0.5474 -0.2467  0.5272
 1040SOL     OW 3300   1.313   0.721   0.036 -0.3467 -0.8096  1.1365
 1040SOL    HW1 3301   1.379   0.646   0.030  0.2376 -0.3153  1.2710
 1040SOL    HW2 3302   1.313   0.758   0.129 -1.0467 -1.0129  1.2179
 1041SOL     OW 3303   2.796   2.451   0.753  0.0517 -0.3273 -0.0953
 1041SOL    HW1 3304   2.732   2.501   0.695 -0.9843 -2.7107 -1.1773
 1041SOL    HW2 3305   2.882   2.438   0.703 -0.7580 -2.1732 -1.1670
 1042SOL     OW 3306   1.485   1.890   2.735  0.1147 -0.4500 -0.2848
 1042SOL    HW1 3307   1.394   1.850   2.730 -0.2805  0.4269 -0.4355
 1042SOL    HW2 3308   1.503   1.941   2.651  0.3316  0.2129  0.1555
 1043SOL     OW 3309   1.516   4.039   2.387 -0.2125  0.3369 -0.3529
 1043SOL    HW1 3310   1.570   4.108   2.340  0.0430 -0.8606 -1.9187
 1043SOL    HW2 3311   1.459   3.991   2.321 -1.1984 -0.2277  0.8555
 1044SOL     OW 3312   1.463   3.923   0.568  0.4558 -0.6012  0.4118
 1044SOL    HW1 3313   1.388   3.888   0.512  0.6127 -1.1797  0.5636
 1044SOL    HW2 3314   1.463   3.876   0.656  1.8051 -1.5474 -0.0752
 1045SOL     OW 3315   0.466   4.236   2.963 -0.5023 -0.4323 -0.4341
 1045SOL    HW1 3316   0.492   4.331   2.948 -2.0792 -0.1212 -1.4770
 1045SOL    HW2 3317   0.521   4.177   2.904  1.2246 -0.3238  0.9777
 1046SOL     OW 3318   3.596   2.477   1.768  0.6281 -0.4410 -0.1001
 1046SOL    HW1 3319   3.561   2.509   1.680 -1.1768  0.9923  1.0619
 1046SOL    HW2 3320   3.579   2.380   1.778 -0.5849 -0.2993 -0.6921
 1047SOL     OW 3321   1.576   2.521   3.422 -0.0814  1.0729  0.7417
 1047SOL    HW1 3322   1.586   2.599   3.359  0.0185  0.7277  0.3232
 1047SOL    HW2 3323   1.509   2.458   3.385  0.5083  0.5074  0.6110
 1048SOL     OW 3324   3.043   2.440   1.394 -0.4451  0.0600 -0.0377
 1048SOL    HW1 3325   3.121   2.378   1.400 -1.0502 -0.7968 -0.7030
 1048SOL    HW2 3326   3.042   2.483   1.304 -0.8783 -0.1410 -0.1344
 1049SOL     OW 3327   2.850   0.187   3.502 -0.1580  0.8785 -0.8221
 1049SOL    HW1 3328   2.787   0.210   3.427 -0.6938 -0.7706 -0.9103
 1049SOL    HW2 3329   2.806   0.208   3.589 -2.3135 -3.1605 -0.6907
 1050SOL     OW 3330   1.348   2.989   3.826 -0.2857  0.3328  0.3846
 1050SOL    HW1 3331   1.329   3.001   3.923  0.5557 -0.6489  0.6834
 1050SOL    HW2 3332   1.369   3.078   3.785 -0.9379  0.7912  1.0239
 1051SOL     OW 3333   2.293   3.331   0.713  0.1756  0.2925  0.0827
 1051SOL    HW1 3334   2.337   3.254   0.758 -0.2493  0.6361  1.1009
 1051SOL    HW2 3335   2.356   3.408   0.711  0.2933  0.1913 -0.1694
 1052SOL     OW 3336   2.149   3.892   3.895  0.3374  0.3552 -0.1784
 1052SOL    HW1 3337   2.062   3.847   3.914 -0.2707  0.5933 -2.1564
 1052SOL    HW2 3338   2.184   3.860   3.807  2.9303 -0.6986  1.1133
 1053SOL     OW 3339   2.305   3.720   4.062 -0.3458  0.0749 -0.6871
 1053SOL    HW1 3340   2.332   3.758   4.150 -1.7502 -0.2718 -0.0818
 1053SOL    HW2 3341   2.251   3.788   4.012  0.1184  0.1291 -1.1259
 1054SOL     OW 3342   1.155   2.358   0.907  0.6199 -0.6653  0.3817
 1054SOL    HW1 3343   1.197   2.324   0.823  0.2987 -1.1051  0.3996
 1054SOL    HW2 3344   1.069   2.405   0.884  0.5106 -0.8227  0.4687
 1055SOL     OW 3345   1.242   3.276   2.028 -0.1215  0.1168 -0.2637
 1055SOL    HW1 3346   1.272   3.232   2.112 -1.3457 -1.1142 -0.4185
 1055SOL    HW2 3347   1.314   3.268   1.958  0.2112 -0.4191  0.1373
 1056SOL     OW 3348   3.535   3.838   1.530 -0.3202  0.7176  0.1826
 1056SOL    HW1 3349   3.584   3.894   1.463  2.2678  0.1450  1.4933
 1056SOL    HW2 3350   3.540   3.882   1.619  1.1222 -1.1475  1.0886
 1057SOL     OW 3351   2.929   0.624   0.586  0.0681 -0.0322  0.1522
 1057SOL    HW1 3352   2.926   0.634   0.487 -0.6424 -1.7394 -0.0453
 1057SOL    HW2 3353   2.954   0.530   0.609  2.3465  0.8406  1.6492
 1058SOL     OW 3354   0.304   3.881   1.763 -0.4053 -0.0586 -0.0535
 1058SOL    HW1 3355   0.401   3.904   1.765 -0.4957  0.3233 -0.0298
 1058SOL    HW2 3356   0.284   3.818   1.839  0.0011 -0.8703 -0.6061
 1059SOL     OW 3357   2.666   3.844   3.240 -0.0506 -0.3054 -0.3964
 1059SOL    HW1 3358   2.612   3.927   3.254 -0.7607 -0.2456 -3.0478
 1059SOL    HW2 3359   2.630   3.772   3.298 -1.8797  0.2269 -0.8001
 1060SOL     OW 3360   1.855   0.045   4.171 -0.1955  0.0335 -0.1513
 1060SOL    HW1 3361   1.782   0.016   4.109 -1.4118  0.8435  0.8473
 1060SOL    HW2 3362   1.937   0.065   4.117 -1.5942  2.0094 -1.7432
 1061ETH      C 3363   1.752   3.776   1.084 -0.4396  0.1460 -0.2206
 1061ETH     C1 3364   1.804   3.641   1.129 -0.1761 -0.0013 -0.3228
 1061ETH      O 3365   1.832   3.561   1.012 -0.3701 -0.1793  0.3331
 1061ETH      H 3366   1.830   3.809   1.015  0.8996 -0.6205  0.8861
 1061ETH     H1 3367   1.734   3.847   1.166 -0.9296 -0.5741  0.3037
 1061ETH     H2 3368   1.660   3.751   1.030 -1.6298 -0.3149  1.9300
 1061ETH     H3 3369   1.889   3.638   1.198 -1.2695  2.8404  1.2767
 1061ETH     H4 3370   1.722   3.595   1.185 -0.5726 -0.3771 -1.1818
 1061ETH     H5 3371   1.826   3.629   0.943 -0.2277 -0.4513  0.0509
 1062ETH      C 3372   3.182   0.270   4.210 -0.0609  0.1358 -0.9851
 1062ETH     C1 3373   3.151   0.325   4.072 -0.1984 -0.2024 -0.1699
 1062ETH      O 3374   3.019   0.368   4.071 -0.0122  0.2929 -0.1295
 1062ETH      H 3375   3.211   0.352   4.276 -0.4409 -0.5833  0.1051
 1062ETH     H1 3376   3.260   0.192   4.211  2.3455  2.2608  2.6507
 1062ETH     H2 3377   3.091   0.231   4.257 -0.9236  2.6970 -0.4046
 1062ETH     H3 3378   3.219   0.406   4.041  1.8662 -2.1490 -0.9653
 1062ETH     H4 3379   3.159   0.244   3.999  0.4493 -0.0938 -0.2229
 1062ETH     H5 3380   2.997   0.362   3.977  1.2108 -0.6232 -0.3771
 1063ETH      C 3381   0.755   2.462   0.263  0.0531 -0.2094  0.3466
 1063ETH     C1 3382   0.824   2.571   0.335 -0.1447 -0.5784  0.0636
 1063ETH      O 3383   0.833   2.534   0.477  0.5833 -0.6337  0.0411
 1063ETH      H 3384   0.649   2.454   0.290 -0.2645 -1.4577 -1.0876
 1063ETH     H1 3385   0.808   2.370   0.290  0.6725  1.0347  3.8957
 1063ETH     H2 3386   0.755   2.478   0.154  1.4761  1.0522  0.5027
 1063ETH     H3 3387   0.925   2.586   0.295 -0.8569  2.8260 -0.7890
 1063ETH     H4 3388   0.778   2.669   0.323  0.1332 -0.1557  2.1201
 1063ETH     H5 3389   0.858   2.612   0.530 -1.3413 -1.1780  1.9076
 1064ETH      C 3390   3.613   0.818   0.988  0.2251  0.7144 -0.1640
 1064ETH     C1 3391   3.651   0.685   1.031  0.5622  0.6813  0.8256
 1064ETH      O 3392   3.530   0.614   1.058 -0.3735  0.3363  0.1066
 1064ETH      H 3393   3.690   0.879   0.940  1.3126 -0.9009 -0.5528
 1064ETH     H1 3394   3.566   0.870   1.072  0.8030  0.2570  0.4511
 1064ETH     H2 3395   3.541   0.802   0.906 -0.1596 -1.1292  0.4873
 1064ETH     H3 3396   3.697   0.630   0.947 -0.9352 -0.9370  1.0082
 1064ETH     H4 3397   3.728   0.670   1.108  1.2625  1.1117  0.2237
 1064ETH     H5 3398   3.479   0.673   1.116 -0.0736  2.1709 -1.3906
 1065ETH      C 3399   0.864   2.552   3.860 -0.0759  0.0312 -0.0443
 1065ETH     C1 3400   0.904   2.461   3.980 -0.1999  0.4330 -0.2407
 1065ETH      O 3401   0.872   2.320   3.951 -0.6283 -0.3527 -0.5446
 1065ETH      H 3402   0.926   2.536   3.770 -1.4977  0.4632 -1.1379
 1065ETH     H1 3403   0.894   2.655   3.886  1.1463 -0.9259  2.7387
 1065ETH     H2 3404   0.758   2.548   3.833  0.4400 -0.6644 -2.2066
 1065ETH     H3 3405   1.011   2.478   4.000 -0.8396  1.1120  3.2011
 1065ETH     H4 3406   0.846   2.502   4.063  0.1417  1.0533 -0.3071
 1065ETH     H5 3407   0.875   2.267   4.032 -2.2997 -2.6393 -1.8423
 1066ETH      C 3408   2.144   0.945   4.214 -0.3885 -0.0697  0.3025
 1066ETH     C1 3409   2.181   0.801   4.250 -0.2663  0.5070  0.3399
 1066ETH      O 3410   2.289   0.790   4.344 -0.1800  0.5543 -0.3828
 1066ETH      H 3411   2.132   1.001   4.308 -1.8879  0.1000  0.0303
 1066ETH     H1 3412   2.059   0.959   4.146  0.0290  1.4624  0.0522
 1066ETH     H2 3413   2.237   0.981   4.169 -0.0932 -0.2712  0.7485
 1066ETH     H3 3414   2.092   0.743   4.278 -0.9096  1.1850 -0.2485
 1066ETH     H4 3415   2.203   0.765   4.149  0.1116 -0.7734  0.8598
 1066ETH     H5 3416   2.364   0.846   4.317  1.5751 -1.2558  0.4415
 1067ETH      C 3417   0.764   4.102   2.835  0.3611 -0.1667 -0.4713
 1067ETH     C1 3418   0.694   3.995   2.750  0.5244  0.1713 -0.0321
 1067ETH      O 3419   0.550   4.001   2.759 -0.4887  0.3258  0.1753
 1067ETH      H 3420   0.751   4.197   2.783 -2.1710 -0.5898 -0.7326
 1067ETH     H1 3421   0.873   4.089   2.840  0.2585 -0.8442  0.2494
 1067ETH     H2 3422   0.710   4.110   2.930  1.6463  1.4756  0.1794
 1067ETH     H3 3423   0.736   4.010   2.649  0.1692  3.1458  0.1658
 1067ETH     H4 3424   0.724   3.897   2.788 -0.8429 -0.0966  0.4083
 1067ETH     H5 3425   0.515   3.975   2.672 -1.2715 -0.1097  0.6200
 1068ETH      C 3426   4.127   2.889   2.503  0.0348  0.3743 -0.5114
 1068ETH     C1 3427   3.995   2.818   2.461  0.0613  0.5313 -0.2872
 1068ETH      O 3428   3.999   2.674   2.464  0.0426 -0.6858  0.0398
 1068ETH      H 3429   4.201   2.865   2.425 -0.0515  0.5563 -0.6514
 1068ETH     H1 3430   4.163   2.855   2.600 -0.4073  1.2524 -0.0303
 1068ETH     H2 3431   4.105   2.996   2.506  0.1612  0.4329 -1.3390
 1068ETH     H3 3432   3.915   2.853   2.528  2.1291  0.6794  2.2248
 1068ETH     H4 3433   3.964   2.858   2.363  0.7619 -2.0213 -1.6333
 1068ETH     H5 3434   3.932   2.644   2.400 -2.5155  0.6856  1.8935
 1069ETH      C 3435   1.203   1.950   3.927  0.0885 -0.5894  0.6274
 1069ETH     C1 3436   1.328   1.876   3.891 -0.0873  0.8411  0.1438
 1069ETH      O 3437   1.373   1.919   3.766  0.4278 -0.1622  0.5401
 1069ETH      H 3438   1.168   1.913   4.024  0.1205  1.6892  1.5641
 1069ETH     H1 3439   1.127   1.926   3.852  1.7606  2.2798 -2.2296
 1069ETH     H2 3440   1.219   2.059   3.924 -0.9591 -0.4394 -0.9875
 1069ETH     H3 3441   1.395   1.904   3.973 -1.3902 -0.4870  1.7603
 1069ETH     H4 3442   1.302   1.771   3.909 -2.8967  1.5890  0.9851
 1069ETH     H5 3443   1.320   1.876   3.696  3.2091 -2.3708 -0.4134
 1070ETH      C 3444   4.099   0.736   3.786 -0.2253  0.1877  0.0463
 1070ETH     C1 3445   4.093   0.864   3.867  0.3616 -0.3185  0.2419
 1070ETH      O 3446   4.204   0.872   3.959 -0.2157  0.0737  0.6708
 1070ETH      H 3447   4.070   0.642   3.834 -1.1626 -0.1751 -1.1813
 1070ETH     H1 3448   4.196   0.719   3.737  0.1109 -0.0952  0.7812
 1070ETH     H2 3449   4.028   0.741   3.702  1.2075  1.1602 -1.1662
 1070ETH     H3 3450   4.104   0.930   3.780  2.5997 -3.0018 -1.6764
 1070ETH     H4 3451   3.994   0.876   3.915 -0.2073  0.0734 -0.9954
 1070ETH     H5 3452   4.190   0.795   4.017  0.8209 -0.0580  0.7562
 1071ETH      C 3453   0.068   2.018   3.925  0.3150  0.7393 -0.7537
 1071ETH     C1 3454  -0.034   2.012   3.810 -1.3219 -0.4667 -0.7950
 1071ETH      O 3455  -0.160   2.004   3.859  0.4616 -0.0446  0.0847
 1071ETH      H 3456   0.070   1.917   3.968 -0.8966  1.3281  0.8058
 1071ETH     H1 3457   0.037   2.082   4.009  1.9533  0.1374  0.3655
 1071ETH     H2 3458   0.170   2.041   3.891  0.2851  2.3480  0.1177
 1071ETH     H3 3459  -0.015   2.097   3.743  0.3026  0.6973  1.0022
 1071ETH     H4 3460  -0.007   1.924   3.751  1.4490 -1.4038  1.6148
 1071ETH     H5 3461  -0.159   1.922   3.910  3.4782  0.6268  1.3520
 1072ETH      C 3462   1.791   3.885   2.945  0.9340  0.3588  0.2413
 1072ETH     C1 3463   1.930   3.930   2.997  0.6190  0.0045  0.1713
 1072ETH      O 3464   2.006   3.977   2.895  0.2565  0.6325  0.0264
 1072ETH      H 3465   1.800   3.807   2.868 -1.8569  0.8762 -0.7169
 1072ETH     H1 3466   1.732   3.969   2.907 -0.1620  1.2575  3.6257
 1072ETH     H2 3467   1.736   3.840   3.028 -1.0617  1.2666 -0.5285
 1072ETH     H3 3468   1.912   4.012   3.067  0.8257  1.1007 -1.0282
 1072ETH     H4 3469   1.987   3.851   3.049  2.3135  0.1790 -1.3316
 1072ETH     H5 3470   1.949   3.978   2.816 -0.5711  4.5229  0.4287
 1073ETH      C 3471   2.197   0.492   0.590 -0.7163  0.0940  0.3297
 1073ETH     C1 3472   2.190   0.635   0.621 -0.6374  0.0329  0.1855
 1073ETH      O 3473   2.053   0.662   0.660 -0.3399 -0.5735 -0.8372
 1073ETH      H 3474   2.297   0.456   0.563 -0.6349  1.3454 -1.1701
 1073ETH     H1 3475   2.122   0.468   0.514  0.4278 -1.7310 -0.2951
 1073ETH     H2 3476   2.168   0.436   0.680 -2.2618  0.8156  0.3084
 1073ETH     H3 3477   2.265   0.662   0.696 -0.6067 -2.0813  0.9863
 1073ETH     H4 3478   2.212   0.696   0.532  0.5278 -0.0886  0.3770
 1073ETH     H5 3479   2.051   0.758   0.676 -0.0109 -0.4378 -1.5647
 1074ETH      C 3480   3.648   1.996   2.284  0.0428  0.6043  0.1307
 1074ETH     C1 3481   3.525   1.939   2.354  0.0420 -0.4314  0.4119
 1074ETH      O 3482   3.420   2.042   2.361 -0.1746  1.1328 -0.4739
 1074ETH      H 3483   3.627   2.003   2.176  0.7738 -0.9783 -0.1491
 1074ETH     H1 3484   3.735   1.931   2.298 -0.8671 -1.2920 -2.1884
 1074ETH     H2 3485   3.659   2.098   2.321 -0.0315  0.3319  0.9141
 1074ETH     H3 3486   3.488   1.848   2.305 -0.4998  0.1182 -0.2084
 1074ETH     H4 3487   3.568   1.907   2.450  1.2800 -0.4508 -0.1337
 1074ETH     H5 3488   3.449   2.126   2.401 -0.4988  0.0378  2.3166
 1075ETH      C 3489   4.235   2.674   0.345  0.0978  0.3385  0.3043
 1075ETH     C1 3490   4.139   2.627   0.232  0.1726 -0.0698 -0.6465
 1075ETH      O 3491   4.020   2.699   0.256 -0.0434  0.4615 -0.4576
 1075ETH      H 3492   4.319   2.604   0.352 -0.9924 -1.1559 -0.8312
 1075ETH     H1 3493   4.187   2.669   0.444  1.5337  0.0909  1.0154
 1075ETH     H2 3494   4.270   2.775   0.322 -0.9421  0.5307 -0.4883
 1075ETH     H3 3495   4.193   2.648   0.139 -0.6746  0.7573 -0.9691
 1075ETH     H4 3496   4.124   2.519   0.243  3.3112 -0.4627  0.7529
 1075ETH     H5 3497   3.978   2.662   0.335  0.8510 -1.4817 -0.8460
 1076ETH      C 3498   3.724   0.299   1.490 -0.4399 -0.2523 -0.1502
 1076ETH     C1 3499   3.686   0.155   1.542  0.0205 -0.8335 -0.6457
 1076ETH      O 3500   3.727   0.061   1.441  0.0204 -0.5278 -0.4248
 1076ETH      H 3501   3.655   0.322   1.408 -0.3578 -1.1826 -0.4921
 1076ETH     H1 3502   3.832   0.299   1.471  0.0404 -1.7900  2.1514
 1076ETH     H2 3503   3.717   0.369   1.574 -0.2054 -0.0133 -0.3281
 1076ETH     H3 3504   3.744   0.136   1.633  0.2822  0.0228 -0.6290
 1076ETH     H4 3505   3.579   0.146   1.565  0.4300  0.1196  1.9279
 1076ETH     H5 3506   3.680  -0.022   1.460  0.8249 -0.5444  1.6593
 1077ETH      C 3507   2.214   0.606   3.488  0.2381 -0.7934  0.9350
 1077ETH     C1 3508   2.212   0.669   3.348 -0.1128  0.0502  0.0431
 1077ETH      O 3509   2.294   0.589   3.267  0.3416 -0.3552  0.4378
 1077ETH      H 3510   2.318   0.585   3.517  0.9837 -0.4273 -1.2349
 1077ETH     H1 3511   2.162   0.511   3.503  0.1847 -1.0248 -0.5093
 1077ETH     H2 3512   2.173   0.682   3.555  0.6061  0.2051  0.0720
 1077ETH     H3 3513   2.109   0.672   3.310 -1.9560  0.3379  4.4630
 1077ETH     H4 3514   2.243   0.774   3.355  0.4257 -0.0367 -0.8924
 1077ETH     H5 3515   2.260   0.498   3.275  0.4854 -0.3473  1.2101
 1078ETH      C 3516   2.225   0.393   2.743  0.4972 -0.3645 -0.2492
 1078ETH     C1 3517   2.354   0.332   2.679 -0.7154 -0.1368 -0.2298
 1078ETH      O 3518   2.355   0.190   2.677  0.2396  0.0157  0.1045
 1078ETH      H 3519   2.226   0.409   2.851 -2.8467 -1.6446  0.0823
 1078ETH     H1 3520   2.140   0.330   2.715  0.5483 -0.1448 -0.9366
 1078ETH     H2 3521   2.201   0.492   2.701 -0.2114  0.1443  1.2891
 1078ETH     H3 3522   2.377   0.379   2.582 -1.5739  3.1759  1.0278
 1078ETH     H4 3523   2.441   0.363   2.738  0.5859 -1.8240 -1.1556
 1078ETH     H5 3524   2.282   0.166   2.619  0.5916  0.1466 -0.3952
 1079ETH      C 3525   3.800   0.092   0.244 -0.6676 -0.5523  0.5884
 1079ETH     C1 3526   3.706   0.202   0.185 -0.0500 -0.5795  0.0465
 1079ETH      O 3527   3.743   0.326   0.238 -0.2475  0.2736 -0.2506
 1079ETH      H 3528   3.766  -0.002   0.198 -0.4307  0.2017 -1.2222
 1079ETH     H1 3529   3.777   0.082   0.350 -1.7707  0.0116  0.4124
 1079ETH     H2 3530   3.900   0.100   0.198 -1.4360 -0.2284 -1.0847
 1079ETH     H3 3531   3.707   0.220   0.077  1.3017  2.4120  0.4536
 1079ETH     H4 3532   3.599   0.180   0.195 -0.4507  1.3885  0.3886
 1079ETH     H5 3533   3.792   0.313   0.321 -0.8612  3.1330  0.6934
 1080ETH      C 3534   0.217   2.331   3.383 -0.0481 -0.6822  0.0288
 1080ETH     C1 3535   0.146   2.304   3.519 -0.3392  0.9614  0.9155
 1080ETH      O 3536   0.095   2.430   3.564 -0.0619 -0.1765 -0.1960
 1080ETH      H 3537   0.272   2.425   3.394 -1.9159  0.6424 -1.2810
 1080ETH     H1 3538   0.135   2.337   3.311 -0.7229 -2.5764  0.5933
 1080ETH     H2 3539   0.282   2.249   3.349  0.6624  0.7572 -2.3225
 1080ETH     H3 3540   0.063   2.234   3.510  0.9780 -0.5289 -0.2558
 1080ETH     H4 3541   0.227   2.264   3.581  0.3044  1.0581  0.1587
 1080ETH     H5 3542   0.169   2.486   3.592  0.8491 -0.5296 -1.7993
 1081ETH      C 3543   3.373   2.942   0.026  0.4422  0.7862  0.5475
 1081ETH     C1 3544   3.432   2.807   0.066 -0.3268  0.0780 -0.1853
 1081ETH      O 3545   3.541   2.821   0.164  0.1284  0.4106  0.0065
 1081ETH      H 3546   3.463   2.991  -0.013  1.0304 -0.9395 -0.3754
 1081ETH     H1 3547   3.323   2.993   0.109 -0.7752 -0.5246  0.6563
 1081ETH     H2 3548   3.302   2.937  -0.058  0.8895 -3.3154  0.2152
 1081ETH     H3 3549   3.355   2.743   0.111 -1.5701  0.8854 -1.0630
 1081ETH     H4 3550   3.476   2.764  -0.024 -0.6332 -1.0536  0.1961
 1081ETH     H5 3551   3.504   2.869   0.240  0.8531  0.8644  0.0786
 1082ETH      C 3552   4.147   3.061   1.467  0.5361  0.7159  0.1746
 1082ETH     C1 3553   4.081   2.941   1.540 -0.1786 -0.2653  0.1753
 1082ETH      O 3554   4.152   2.814   1.512  0.0099 -0.8130 -0.7089
 1082ETH      H 3555   4.090   3.151   1.493  0.4320  0.4579  0.8504
 1082ETH     H1 3556   4.159   3.055   1.358 -2.5152 -0.8034 -0.1695
 1082ETH     H2 3557   4.244   3.084   1.513  1.4470  0.2773 -1.4321
 1082ETH     H3 3558   4.084   2.971   1.645  0.8502  1.4364 -0.3050
 1082ETH     H4 3559   3.975   2.929   1.514  0.1710 -0.5132 -1.2136
 1082ETH     H5 3560   4.090   2.743   1.488  0.6568 -1.8925  0.6943
 1083ETH      C 3561   3.177   0.443   2.568 -0.3569  0.7694 -0.0351
 1083ETH     C1 3562   3.215   0.588   2.525  0.0661  0.2085  0.5041
 1083ETH      O 3563   3.274   0.574   2.398 -0.4682 -0.4827 -0.1403
 1083ETH      H 3564   3.113   0.426   2.655  0.4864 -2.8019  0.0240
 1083ETH     H1 3565   3.267   0.381   2.579 -0.9490 -0.5190 -1.9062
 1083ETH     H2 3566   3.127   0.389   2.487  0.9375 -1.8284  0.7936
 1083ETH     H3 3567   3.134   0.660   2.520 -0.0255  0.0091 -2.7318
 1083ETH     H4 3568   3.290   0.617   2.600  0.0957 -3.1419  1.9633
 1083ETH     H5 3569   3.210   0.532   2.338  2.2419 -1.1469 -2.8670
 1084ETH      C 3570   3.326   0.885   2.238 -0.0664 -0.1092 -0.4434
 1084ETH     C1 3571   3.458   0.817   2.194 -0.2799 -0.0514  0.4386
 1084ETH      O 3572   3.570   0.831   2.277  0.8363  0.2394  0.4030
 1084ETH      H 3573   3.343   0.993   2.244 -0.4209 -0.1164  1.3655
 1084ETH     H1 3574   3.300   0.853   2.340  0.0584  1.0518 -0.0339
 1084ETH     H2 3575   3.249   0.858   2.166 -0.8018 -0.7481  0.5537
 1084ETH     H3 3576   3.437   0.709   2.189 -0.7560  0.0871 -1.2475
 1084ETH     H4 3577   3.475   0.846   2.090 -2.0802  0.2849  0.2156
 1084ETH     H5 3578   3.601   0.740   2.293 -2.4091 -1.3426 -1.3515
 1085ETH      C 3579   1.259   1.130   1.424  0.5191 -0.4224  0.2903
 1085ETH     C1 3580   1.365   1.134   1.311 -0.4285  0.0554 -0.7007
 1085ETH      O 3581   1.349   1.249   1.230 -0.0794 -0.3687 -0.1586
 1085ETH      H 3582   1.159   1.126   1.379  0.3829  0.0337  0.5485
 1085ETH     H1 3583   1.266   1.226   1.476  0.5169  0.1294 -0.7009
 1085ETH     H2 3584   1.268   1.051   1.499 -1.6704  0.0956  1.1853
 1085ETH     H3 3585   1.462   1.145   1.360 -1.6922  2.2073  1.5791
 1085ETH     H4 3586   1.365   1.041   1.253  1.0009 -1.4125  1.5191
 1085ETH     H5 3587   1.285   1.236   1.158  0.8734  0.4578 -1.1889
 1086ETH      C 3588   2.327   0.385   1.524  0.2754  0.2450 -0.4330
 1086ETH     C1 3589   2.327   0.514   1.447  0.2172  0.5980 -0.1370
 1086ETH      O 3590   2.409   0.506   1.333  0.1646  0.2235  0.0276
 1086ETH      H 3591   2.252   0.396   1.604  0.6318  1.7743 -0.2812
 1086ETH     H1 3592   2.424   0.372   1.574 -1.1385 -0.4477  2.3473
 1086ETH     H2 3593   2.314   0.302   1.454  0.1319 -1.2390  1.2749
 1086ETH     H3 3594   2.222   0.526   1.416  0.0854  1.2807  0.5421
 1086ETH     H4 3595   2.358   0.593   1.516  1.2025  0.6856 -0.6771
 1086ETH     H5 3596   2.350   0.461   1.270 -1.3919  0.7678  1.0130
 1087ETH      C 3597   3.431   4.227   3.829  0.1610  0.2817  0.4666
 1087ETH     C1 3598   3.367   4.353   3.769  0.0817 -0.1786  0.4139
 1087ETH      O 3599   3.231   4.352   3.807  0.0139 -0.7397 -0.3958
 1087ETH      H 3600   3.369   4.139   3.805  2.0053 -1.0892  0.5581
 1087ETH     H1 3601   3.445   4.227   3.937  0.8681 -0.2895  0.3812
 1087ETH     H2 3602   3.524   4.200   3.777 -0.2381  0.7266 -0.5174
 1087ETH     H3 3603   3.419   4.443   3.803  0.2214 -0.5878  1.2961
 1087ETH     H4 3604   3.381   4.332   3.662 -0.0003  0.7266  0.2212
 1087ETH     H5 3605   3.194   4.422   3.751 -0.4154 -1.2463 -0.7478
 1088ETH      C 3606   4.238   3.462   0.734  0.2528  0.0555  0.5465
 1088ETH     C1 3607   4.125   3.533   0.823 -0.2053  0.4970 -0.5375
 1088ETH      O 3608   4.091   3.665   0.771 -0.2156  0.3558  0.4836
 1088ETH      H 3609   4.314   3.533   0.701  0.7890 -0.2857  1.0333
 1088ETH     H1 3610   4.186   3.423   0.646  0.6340  0.5759  0.0886
 1088ETH     H2 3611   4.284   3.380   0.790 -2.2511 -0.1450  2.5124
 1088ETH     H3 3612   4.035   3.470   0.824 -0.0339  0.2441  0.7233
 1088ETH     H4 3613   4.170   3.538   0.923 -0.3644 -0.8443 -0.3766
 1088ETH     H5 3614   4.010   3.651   0.720  1.1539  0.2138 -1.7815
 1089ETH      C 3615   0.795   3.098   1.313 -0.0075  0.0145  0.0836
 1089ETH     C1 3616   0.889   3.221   1.352  0.7286  0.0553 -0.1292
 1089ETH      O 3617   1.025   3.217   1.294  0.2883 -0.0154 -0.5615
 1089ETH      H 3618   0.853   3.005   1.320  0.4935 -0.0182 -3.1074
 1089ETH     H1 3619   0.761   3.109   1.209 -1.0129 -0.1166  0.3948
 1089ETH     H2 3620   0.707   3.102   1.377  0.1682 -2.0174  0.5209
 1089ETH     H3 3621   0.836   3.315   1.334 -2.3246 -1.4991  0.0689
 1089ETH     H4 3622   0.900   3.219   1.462 -1.8062  2.5397  0.2670
 1089ETH     H5 3623   1.077   3.267   1.359  0.4197  0.9023 -1.3401
 1090ETH      C 3624   1.271   0.197   3.497 -0.2224  0.2564  0.7181
 1090ETH     C1 3625   1.140   0.236   3.576  0.2566  0.1444  0.0163
 1090ETH      O 3626   1.071   0.121   3.616 -0.0955  0.5531 -0.8589
 1090ETH      H 3627   1.346   0.168   3.571 -1.5717 -0.4189  1.8574
 1090ETH     H1 3628   1.316   0.278   3.437 -0.4663 -0.5559 -0.6137
 1090ETH     H2 3629   1.242   0.113   3.432 -6.3767  0.8297  2.1300
 1090ETH     H3 3630   1.169   0.299   3.660  0.4670 -1.7204  1.4209
 1090ETH     H4 3631   1.075   0.285   3.503 -0.9155  0.3273  1.1500
 1090ETH     H5 3632   1.087   0.115   3.712  1.1674 -1.3032 -1.1321
 1091ETH      C 3633   1.108   0.646   3.251 -0.3533  0.6197  0.9648
 1091ETH     C1 3634   1.110   0.666   3.099  0.0684 -0.4942  0.3315
 1091ETH      O 3635   1.239   0.722   3.072 -0.2318  0.8415  0.3240
 1091ETH      H 3636   1.012   0.595   3.270  1.2366 -2.4173  1.5005
 1091ETH     H1 3637   1.099   0.741   3.304 -0.2780 -0.0896  2.2812
 1091ETH     H2 3638   1.194   0.589   3.286 -0.0856 -0.3892 -1.1873
 1091ETH     H3 3639   1.097   0.568   3.051 -0.3039 -0.1929 -0.1931
 1091ETH     H4 3640   1.031   0.731   3.060 -2.1158 -3.0114  0.2636
 1091ETH     H5 3641   1.234   0.813   3.108  0.4610  0.4024  1.5876
 1092ETH      C 3642   0.951   3.893   1.587 -0.1240 -0.0452  0.1211
 1092ETH     C1 3643   0.889   4.014   1.522 -0.2250  0.1604  0.8188
 1092ETH      O 3644   0.930   4.015   1.382 -0.2667 -0.0565 -0.0233
 1092ETH      H 3645   1.061   3.900   1.590 -0.1278 -0.1127  2.0941
 1092ETH     H1 3646   0.919   3.794   1.552  0.6078  0.0865 -0.9485
 1092ETH     H2 3647   0.919   3.899   1.692 -1.8181 -1.3453 -0.2826
 1092ETH     H3 3648   0.780   4.003   1.535 -0.3567  0.2276 -0.1360
 1092ETH     H4 3649   0.931   4.100   1.574  1.4387 -0.2004  0.1536
 1092ETH     H5 3650   0.883   3.937   1.347 -1.2670  0.8189 -0.6921
 1093ETH      C 3651   3.372   3.682   1.066  0.0693  0.1105  0.8314
 1093ETH     C1 3652   3.488   3.586   1.050  0.0988 -0.3668  0.0669
 1093ETH      O 3653   3.607   3.671   1.066  0.6552  0.0118  0.0539
 1093ETH      H 3654   3.278   3.639   1.101  1.1206 -0.9772  2.5023
 1093ETH     H1 3655   3.342   3.743   0.981  3.7492 -0.7832 -1.3628
 1093ETH     H2 3656   3.382   3.750   1.151 -2.9691  0.1916  1.2226
 1093ETH     H3 3657   3.490   3.509   1.129 -1.8682 -1.1759 -0.5974
 1093ETH     H4 3658   3.487   3.536   0.953  1.3246  0.2325 -0.2720
 1093ETH     H5 3659   3.650   3.650   1.151  2.1848  0.1213 -0.6651
 1094ETH      C 3660   0.996   2.190   0.451  0.0287  0.0533 -0.2533
 1094ETH     C1 3661   1.124   2.197   0.537  0.1004 -0.5194 -0.6900
 1094ETH      O 3662   1.092   2.268   0.656 -0.1058 -0.5956 -0.1239
 1094ETH      H 3663   0.906   2.150   0.500 -1.2555 -0.0083 -2.5147
 1094ETH     H1 3664   1.010   2.124   0.365  0.6927 -1.7264  1.1546
 1094ETH     H2 3665   0.966   2.292   0.421  0.4087 -0.0658 -1.0830
 1094ETH     H3 3666   1.153   2.095   0.564  1.1693  0.0642  0.4545
 1094ETH     H4 3667   1.207   2.241   0.480 -0.3430  0.0642 -0.8903
 1094ETH     H5 3668   1.021   2.208   0.685  1.8116 -2.2883  1.3160
 1095ETH      C 3669   0.355   1.516   2.277 -0.5272  0.2520 -0.5762
 1095ETH     C1 3670   0.315   1.580   2.139 -0.2144 -0.3160 -0.7151
 1095ETH      O 3671   0.282   1.718   2.174  0.1215 -0.4312  0.2026
 1095ETH      H 3672   0.457   1.547   2.304  0.1332 -2.1023 -0.1264
 1095ETH     H1 3673   0.359   1.406   2.270  1.9273  0.3071 -1.1422
 1095ETH     H2 3674   0.289   1.541   2.360 -1.7343 -0.4834 -1.2955
 1095ETH     H3 3675   0.392   1.579   2.061 -0.9776  0.8584 -1.5079
 1095ETH     H4 3676   0.230   1.527   2.094 -2.7885  3.5219 -0.8480
 1095ETH     H5 3677   0.245   1.760   2.094  0.4742  1.1216  0.8129
 1096ETH      C 3678   2.999   0.391   3.205  0.1214 -0.2243  0.7761
 1096ETH     C1 3679   3.080   0.269   3.139  0.1151 -0.2981 -0.4826
 1096ETH      O 3680   3.214   0.297   3.120 -0.3698 -0.0306 -0.1544
 1096ETH      H 3681   3.007   0.368   3.312 -0.1394 -2.9742  0.2814
 1096ETH     H1 3682   2.890   0.385   3.194  0.2463 -1.4569 -0.0080
 1096ETH     H2 3683   3.039   0.489   3.177 -3.0772  1.2339  0.8431
 1096ETH     H3 3684   3.067   0.183   3.207 -0.2979  1.4347  1.7400
 1096ETH     H4 3685   3.034   0.254   3.041 -0.9902 -0.0935 -0.0084
 1096ETH     H5 3686   3.246   0.210   3.090  1.7243 -0.7211  3.4263
 1097ETH      C 3687   3.599   3.579   3.706 -0.0121 -0.4876  0.0880
 1097ETH     C1 3688   3.691   3.465   3.748 -0.2919  0.0093 -0.2960
 1097ETH      O 3689   3.808   3.467   3.679  0.2680 -0.3360  0.2008
 1097ETH      H 3690   3.598   3.597   3.598  1.5952 -2.7742 -0.3733
 1097ETH     H1 3691   3.639   3.667   3.757 -1.1877  2.1112 -3.1057
 1097ETH     H2 3692   3.496   3.561   3.738  0.1326 -3.2577 -0.8071
 1097ETH     H3 3693   3.703   3.471   3.857  0.9061 -0.6053 -0.3689
 1097ETH     H4 3694   3.634   3.374   3.727  0.4820 -0.8554  1.1731
 1097ETH     H5 3695   3.876   3.515   3.729  0.9045 -2.0240  1.0242
 1098ETH      C 3696   2.854   0.001   3.978  0.0451  0.3262  0.0425
 1098ETH     C1 3697   2.859  -0.076   3.846  0.4752 -0.1541 -0.1509
 1098ETH      O 3698   2.741  -0.045   3.769  0.1172 -0.0088  0.0763
 1098ETH      H 3699   2.943  -0.030   4.034  0.7841 -0.8310 -1.7089
 1098ETH     H1 3700   2.765  -0.027   4.036  2.2121 -0.2753  3.3896
 1098ETH     H2 3701   2.859   0.106   3.947  1.5847 -0.2787 -2.0132
 1098ETH     H3 3702   2.950  -0.048   3.790  0.8137  0.1334  0.5327
 1098ETH     H4 3703   2.874  -0.184   3.854 -0.7418 -0.3114  0.2055
 1098ETH     H5 3704   2.727   0.051   3.776 -3.4233 -0.3003 -1.2563
 1099ETH      C 3705   2.234   0.923   1.482 -0.2149 -0.4165  0.2427
 1099ETH     C1 3706   2.277   1.066   1.518  0.4747 -0.1618  0.2641
 1099ETH      O 3707   2.198   1.096   1.638 -0.6136  0.1410  0.0327
 1099ETH      H 3708   2.279   0.893   1.386  2.8452 -0.7921  1.6955
 1099ETH     H1 3709   2.125   0.906   1.487 -0.2447  0.0061  1.1556
 1099ETH     H2 3710   2.281   0.852   1.551  0.7579  1.0732  1.1355
 1099ETH     H3 3711   2.387   1.067   1.529  0.6797 -0.8918 -1.4525
 1099ETH     H4 3712   2.255   1.132   1.433 -0.4758 -0.5212  0.2226
 1099ETH     H5 3713   2.116   1.045   1.627 -0.8310  0.2358  1.0696
 1100ETH      C 3714   1.089   1.266   2.438 -0.1518 -0.1670  0.0277
 1100ETH     C1 3715   0.968   1.344   2.396 -0.3567 -0.5050 -0.5656
 1100ETH      O 3716   0.885   1.376   2.509  0.4714  0.0041  0.3420
 1100ETH      H 3717   1.057   1.163   2.459 -1.6871  0.6311  2.0503
 1100ETH     H1 3718   1.131   1.279   2.539  0.8390 -1.5736 -0.1738
 1100ETH     H2 3719   1.171   1.272   2.366  1.1092 -1.0851  1.3235
 1100ETH     H3 3720   1.006   1.430   2.340  1.8090 -1.8126 -1.2231
 1100ETH     H4 3721   0.920   1.274   2.325  0.1271 -0.6645 -0.7388
 1100ETH     H5 3722   0.882   1.473   2.516 -2.3754 -0.1208  2.2059
 1101ETH      C 3723   1.693   3.952   3.997 -0.9059 -0.3406  0.3535
 1101ETH     C1 3724   1.635   4.081   4.058  0.1192 -0.1138 -0.2729
 1101ETH      O 3725   1.640   4.189   3.966 -0.2644 -0.0821 -0.4533
 1101ETH      H 3726   1.639   3.871   4.048 -1.2182 -0.4551 -0.1548
 1101ETH     H1 3727   1.803   3.945   3.996 -0.8873  0.0237 -0.2008
 1101ETH     H2 3728   1.672   3.944   3.890 -1.0924  0.1080  0.3576
 1101ETH     H3 3729   1.530   4.059   4.081  1.1201 -5.0946  0.6642
 1101ETH     H4 3730   1.691   4.100   4.151 -0.0284  1.4192 -0.4772
 1101ETH     H5 3731   1.556   4.180   3.920 -0.0323  0.4087 -0.9851
 1102ETH      C 3732   3.538   2.416   2.250  0.2206 -0.4741  0.5407
 1102ETH     C1 3733   3.581   2.392   2.397  0.3090 -0.0049  0.7959
 1102ETH      O 3734   3.511   2.274   2.448 -0.4613 -0.1015  0.1220
 1102ETH      H 3735   3.430   2.430   2.238  0.3090  2.0076  2.0241
 1102ETH     H1 3736   3.576   2.336   2.185  0.3687  1.0774 -1.3811
 1102ETH     H2 3737   3.582   2.504   2.202  0.2098 -0.7583 -0.0065
 1102ETH     H3 3738   3.690   2.398   2.396  0.2589  1.2477 -0.9327
 1102ETH     H4 3739   3.550   2.479   2.455  0.0812  0.0936  0.5285
 1102ETH     H5 3740   3.504   2.291   2.544  0.1785  0.8278  0.0265
 1103ETH      C 3741   0.582   1.826   0.929 -0.3588 -0.3234  0.7450
 1103ETH     C1 3742   0.721   1.761   0.892  0.1455  0.1088  0.6503
 1103ETH      O 3743   0.782   1.842   0.788  0.4796 -0.4267  0.5866
 1103ETH      H 3744   0.588   1.933   0.953  0.4782 -0.1963  0.0108
 1103ETH     H1 3745   0.534   1.766   1.007 -3.0932 -0.1752 -0.7004
 1103ETH     H2 3746   0.507   1.833   0.849 -1.4297 -0.3651  1.7082
 1103ETH     H3 3747   0.786   1.742   0.979  1.7165  0.1042 -0.4896
 1103ETH     H4 3748   0.712   1.664   0.842 -0.5085  0.4846  0.0209
 1103ETH     H5 3749   0.739   1.811   0.706  0.7241  0.2456  0.1864
 1104ETH      C 3750   1.812   2.441   1.835  0.2815 -0.0713 -0.0742
 1104ETH     C1 3751   1.925   2.544   1.802  0.3622  0.5003  0.0869
 1104ETH      O 3752   1.934   2.643   1.905 -0.0054  0.0965  0.4358
 1104ETH      H 3753   1.707   2.473   1.838 -0.5207 -2.1328 -2.3109
 1104ETH     H1 3754   1.846   2.393   1.927  1.3680 -1.3783 -1.1229
 1104ETH     H2 3755   1.810   2.359   1.761  1.1811 -0.6421  0.5229
 1104ETH     H3 3756   2.017   2.484   1.798  0.6692  0.8516  1.3540
 1104ETH     H4 3757   1.908   2.581   1.700 -0.3771 -0.0050  0.0172
 1104ETH     H5 3758   2.026   2.671   1.891 -0.1744  0.8836  0.8558
 1105ETH      C 3759   3.695   1.293   2.210 -0.2748  0.5752  0.4012
 1105ETH     C1 3760   3.688   1.169   2.296 -0.0407  0.7883  0.6268
 1105ETH      O 3761   3.723   1.058   2.219  0.1283  0.4017  0.1318
 1105ETH      H 3762   3.795   1.296   2.165  1.0382 -1.9141  2.8032
 1105ETH     H1 3763   3.668   1.384   2.263 -2.1167 -0.1426  0.7792
 1105ETH     H2 3764   3.622   1.283   2.128 -1.0527 -1.4454  1.2561
 1105ETH     H3 3765   3.768   1.183   2.370  2.4099 -0.7933 -1.5319
 1105ETH     H4 3766   3.592   1.155   2.347 -0.0964  3.1610  1.3061
 1105ETH     H5 3767   3.664   0.988   2.253 -1.8318  1.2757 -1.2416
 1106ETH      C 3768   3.834   0.093   3.802  0.5471  0.6999 -0.4917
 1106ETH     C1 3769   3.987   0.088   3.792 -0.2711  0.5854  0.4040
 1106ETH      O 3770   4.042   0.194   3.865  0.0226  0.0667  0.0446
 1106ETH      H 3771   3.804   0.196   3.780 -2.0555 -0.3118 -2.2612
 1106ETH     H1 3772   3.790   0.063   3.898 -0.2198  2.6626 -0.1812
 1106ETH     H2 3773   3.787   0.042   3.717  1.4198  0.7691 -1.0288
 1106ETH     H3 3774   4.025  -0.009   3.827 -0.7624 -1.3538 -3.7995
 1106ETH     H4 3775   4.008   0.096   3.685 -1.1208  0.3753  0.2206
 1106ETH     H5 3776   4.135   0.176   3.886  0.2254  0.8011 -0.1848
 1107ETH      C 3777   0.071   0.155   2.896  0.4526 -0.4685  0.1695
 1107ETH     C1 3778  -0.054   0.207   2.958 -0.1150  0.1901  0.5216
 1107ETH      O 3779  -0.098   0.314   2.881  0.0105  0.5606 -0.3305
 1107ETH      H 3780   0.144   0.236   2.885 -3.1949  2.7468 -3.3704
 1107ETH     H1 3781   0.048   0.114   2.797 -2.3089  2.0002 -0.3343
 1107ETH     H2 3782   0.091   0.068   2.960  0.8921  0.7006  1.6793
 1107ETH     H3 3783  -0.135   0.134   2.959 -0.4510  0.5438  2.5311
 1107ETH     H4 3784  -0.031   0.239   3.061 -1.5105 -0.0477  0.9231
 1107ETH     H5 3785  -0.021   0.373   2.880  0.0433  0.5210 -0.1156
 1108ETH      C 3786   3.286   4.105   4.221  0.2050  0.9634  0.9903
 1108ETH     C1 3787   3.198   4.096   4.345  0.6123 -0.4963  0.4756
 1108ETH      O 3788   3.265   4.023   4.451  0.3718  0.1960 -0.1761
 1108ETH      H 3789   3.379   4.161   4.236  1.2413 -0.7733  1.3761
 1108ETH     H1 3790   3.228   4.145   4.137  1.4510  1.4213  0.3251
 1108ETH     H2 3791   3.323   4.012   4.177  1.7359 -0.3682  4.6731
 1108ETH     H3 3792   3.191   4.198   4.385 -0.0440  0.2707 -1.4840
 1108ETH     H4 3793   3.095   4.063   4.326 -1.0373  3.3124  1.8536
 1108ETH     H5 3794   3.263   3.931   4.419 -1.2382  0.1621 -0.0554
 1109ETH      C 3795   1.444   4.036   0.982 -0.9832 -0.3205 -0.9804
 1109ETH     C1 3796   1.323   4.059   0.894 -0.5225 -0.2064  0.3458
 1109ETH      O 3797   1.329   4.180   0.823 -0.0395  0.2598  0.0955
 1109ETH      H 3798   1.408   3.987   1.073 -1.2807 -1.3795 -1.6602
 1109ETH     H1 3799   1.484   4.130   1.022  2.1006 -1.2256 -1.6842
 1109ETH     H2 3800   1.525   3.977   0.938 -1.4324 -1.6642 -0.0455
 1109ETH     H3 3801   1.304   3.976   0.825 -0.0806  0.6637 -0.8624
 1109ETH     H4 3802   1.234   4.062   0.958  1.1565  2.9787  2.8383
 1109ETH     H5 3803   1.388   4.171   0.747  0.3426 -1.8944  0.5830
 1110ETH      C 3804   2.112   1.856   0.920  0.0332 -0.0841  0.4733
 1110ETH     C1 3805   2.032   1.814   0.791  0.2052 -0.2287 -0.3634
 1110ETH      O 3806   2.089   1.687   0.740  0.3176 -0.4771 -0.1076
 1110ETH      H 3807   2.210   1.901   0.900  0.4126 -0.3084  1.7215
 1110ETH     H1 3808   2.130   1.767   0.980  2.8515 -0.8428 -1.3072
 1110ETH     H2 3809   2.048   1.921   0.982  0.6245 -0.3423  1.3647
 1110ETH     H3 3810   1.925   1.810   0.813  0.2352  0.8681  0.0770
 1110ETH     H4 3811   2.041   1.892   0.714  0.2648  2.2006  1.9407
 1110ETH     H5 3812   2.074   1.694   0.644  0.6886  1.8632 -0.0493
 1111ETH      C 3813   3.481   2.137   3.476  0.0494  0.2075 -0.0693
 1111ETH     C1 3814   3.519   2.090   3.337 -0.0873  0.3955  0.0428
 1111ETH      O 3815   3.658   2.073   3.333 -0.1939  0.2448  0.0589
 1111ETH      H 3816   3.371   2.146   3.477 -0.0674 -1.0116  1.3589
 1111ETH     H1 3817   3.530   2.234   3.483 -0.8313  0.8029 -1.6076
 1111ETH     H2 3818   3.509   2.075   3.562 -0.2721 -1.7834 -1.3213
 1111ETH     H3 3819   3.476   1.992   3.312 -0.1754 -0.1317  2.0259
 1111ETH     H4 3820   3.485   2.168   3.268  0.0941  1.2713  0.9110
 1111ETH     H5 3821   3.702   2.151   3.371 -0.0943  0.8396 -1.2308
 1112ETH      C 3822   1.072   3.511   0.098  0.6913  0.1077 -0.3082
 1112ETH     C1 3823   1.063   3.664   0.101  0.0475 -0.1989 -0.4426
 1112ETH      O 3824   1.187   3.706   0.056 -0.1684 -0.4688 -0.1044
 1112ETH      H 3825   0.971   3.474   0.117  0.8484  0.1257  0.6402
 1112ETH     H1 3826   1.153   3.466   0.157 -0.6712 -0.9965  0.8067
 1112ETH     H2 3827   1.101   3.469   0.001  2.3566  1.6056 -0.5263
 1112ETH     H3 3828   0.986   3.705   0.035 -0.4863  0.8138  0.7681
 1112ETH     H4 3829   1.028   3.701   0.198 -1.7929 -2.1099 -0.3140
 1112ETH     H5 3830   1.184   3.733  -0.038  0.6087  2.1075  0.5299
 1113ETH      C 3831   1.111   0.757   2.750  0.4389 -0.5790 -0.4527
 1113ETH     C1 3832   1.244   0.702   2.713 -0.2639 -0.3531  0.2623
 1113ETH      O 3833   1.320   0.645   2.825 -0.1424 -0.3886  0.4823
 1113ETH      H 3834   1.061   0.672   2.798  0.3860 -2.2120 -3.1964
 1113ETH     H1 3835   1.050   0.783   2.663  0.1559 -1.0639 -0.4065
 1113ETH     H2 3836   1.107   0.846   2.813 -1.1427 -1.4366  0.7329
 1113ETH     H3 3837   1.234   0.645   2.620 -0.1847  1.6528 -1.0486
 1113ETH     H4 3838   1.302   0.792   2.685 -3.0354  1.2550 -0.7256
 1113ETH     H5 3839   1.293   0.694   2.904 -1.8385 -1.0660  0.3716
 1114ETH      C 3840   2.589   0.664   1.839 -0.4465 -0.2516  0.5510
 1114ETH     C1 3841   2.691   0.671   1.719  0.7062  0.4983 -0.6837
 1114ETH      O 3842   2.708   0.808   1.672  0.1481 -0.2018 -0.3070
 1114ETH      H 3843   2.646   0.647   1.932  0.5113 -0.0281  0.0210
 1114ETH     H1 3844   2.514   0.587   1.820  1.4339 -1.8716 -0.7080
 1114ETH     H2 3845   2.541   0.762   1.843  1.3819  0.7462 -0.5626
 1114ETH     H3 3846   2.785   0.630   1.759  0.5463 -0.0861 -0.8985
 1114ETH     H4 3847   2.655   0.607   1.637 -1.3037  2.1283 -1.1350
 1114ETH     H5 3848   2.678   0.804   1.580 -1.6933  0.0332  0.2371
 1115ETH      C 3849   1.709   0.631   3.660 -0.0121 -0.2832 -0.3290
 1115ETH     C1 3850   1.742   0.477   3.644  0.0646 -0.2627 -0.0405
 1115ETH      O 3851   1.625   0.409   3.600  0.6102  0.1471 -1.0152
 1115ETH      H 3852   1.682   0.679   3.565 -0.3340 -0.3128 -0.2552
 1115ETH     H1 3853   1.798   0.686   3.693  0.9894 -1.0694 -1.6175
 1115ETH     H2 3854   1.636   0.652   3.738 -0.8716  0.3538 -1.2740
 1115ETH     H3 3855   1.821   0.459   3.570  0.0723 -3.1354  0.5379
 1115ETH     H4 3856   1.785   0.426   3.731 -1.7132  0.5814  1.4033
 1115ETH     H5 3857   1.598   0.461   3.522 -0.5254 -0.1056 -0.8094
 1116ETH      C 3858   1.270   3.461   2.338  1.0083  0.8190  0.0926
 1116ETH     C1 3859   1.168   3.576   2.302 -1.2124  0.0403 -0.3208
 1116ETH      O 3860   1.239   3.704   2.323  0.1181  0.7385 -0.4996
 1116ETH      H 3861   1.226   3.361   2.324  1.7024  0.5309 -0.0700
 1116ETH     H1 3862   1.310   3.472   2.439  1.9028 -2.6431  0.2349
 1116ETH     H2 3863   1.350   3.468   2.265 -0.1185 -0.7409 -1.3746
 1116ETH     H3 3864   1.136   3.558   2.198 -0.8140 -1.9538 -0.1410
 1116ETH     H4 3865   1.077   3.573   2.363 -1.2819  0.8777 -0.3698
 1116ETH     H5 3866   1.271   3.699   2.415  2.9070 -0.5659 -1.4304
 1117ETH      C 3867   0.299   2.675   0.595  0.3565 -0.1723  0.4693
 1117ETH     C1 3868   0.384   2.702   0.718  0.3253 -0.7608 -0.4961
 1117ETH      O 3869   0.433   2.580   0.769 -0.2450  0.1579 -0.0326
 1117ETH      H 3870   0.207   2.731   0.618  0.2267  0.2980 -1.0684
 1117ETH     H1 3871   0.283   2.568   0.579 -0.6261 -0.2401  1.7349
 1117ETH     H2 3872   0.348   2.701   0.501 -1.0024 -2.8172 -1.0563
 1117ETH     H3 3873   0.471   2.766   0.701  0.4038 -0.4045  1.0521
 1117ETH     H4 3874   0.333   2.762   0.795 -1.4908  1.4649 -3.2419
 1117ETH     H5 3875   0.443   2.590   0.865  0.5683 -0.4297 -0.0470
 1118ETH      C 3876   0.164   0.033   2.063  0.2964 -0.5408 -0.6099
 1118ETH     C1 3877   0.053  -0.032   1.993  0.1005 -0.4101  0.6546
 1118ETH      O 3878   0.101  -0.099   1.878 -0.5908 -0.6031  0.1827
 1118ETH      H 3879   0.135   0.063   2.165 -1.8220  0.1610 -1.3736
 1118ETH     H1 3880   0.205   0.114   2.000  0.3364  0.2171  0.3545
 1118ETH     H2 3881   0.245  -0.040   2.076  1.6234  1.0856  0.7483
 1118ETH     H3 3882   0.003  -0.111   2.050  0.6382 -0.4153  1.1256
 1118ETH     H4 3883  -0.027   0.040   1.971 -0.3193 -0.4997  1.8119
 1118ETH     H5 3884   0.098  -0.195   1.894  0.8037 -1.2660 -2.8736
 1119ETH      C 3885   2.681   1.024   3.687 -0.1990 -0.1248  0.2775
 1119ETH     C1 3886   2.712   0.894   3.623  0.2415  0.3071  0.1405
 1119ETH      O 3887   2.686   0.902   3.485  0.5779 -0.3936  0.0553
 1119ETH      H 3888   2.732   1.107   3.636 -0.3713 -0.7803 -1.0056
 1119ETH     H1 3889   2.694   1.027   3.796 -2.8209  0.7079  0.6575
 1119ETH     H2 3890   2.573   1.042   3.677 -0.6755 -0.5125  3.5764
 1119ETH     H3 3891   2.813   0.863   3.654  0.6818  1.6357  0.1012
 1119ETH     H4 3892   2.649   0.815   3.665  1.9343 -0.0849  2.0948
 1119ETH     H5 3893   2.706   0.818   3.440  0.2732 -0.2034 -0.4428
 1120ETH      C 3894   3.582   1.096   3.409 -0.2254  0.1434  0.1046
 1120ETH     C1 3895   3.711   1.171   3.420  0.0343  0.4277 -0.4026
 1120ETH      O 3896   3.815   1.105   3.340  0.1038  0.4676  0.5438
 1120ETH      H 3897   3.561   1.053   3.310  0.2564 -2.4763  1.0481
 1120ETH     H1 3898   3.502   1.162   3.444  0.6204  1.0735  0.3278
 1120ETH     H2 3899   3.591   1.013   3.481 -1.8559  2.1300  2.7668
 1120ETH     H3 3900   3.683   1.272   3.388  1.2058  0.8690 -0.0969
 1120ETH     H4 3901   3.747   1.184   3.523 -0.9620  1.4895 -0.1744
 1120ETH     H5 3902   3.902   1.139   3.367 -0.3250  1.2469  0.9843
 1121ETH      C 3903   3.580   4.105   2.799 -0.1771 -0.6214 -0.4752
 1121ETH     C1 3904   3.617   4.115   2.947  0.1630 -0.2854 -1.0260
 1121ETH      O 3905   3.640   4.252   2.978 -0.1882 -0.0516  0.5544
 1121ETH      H 3906   3.660   4.158   2.747 -1.1264  1.7772  0.3651
 1121ETH     H1 3907   3.490   4.167   2.783 -0.8013 -1.0928  1.0334
 1121ETH     H2 3908   3.575   4.005   2.755 -0.5848  0.1893 -2.3985
 1121ETH     H3 3909   3.535   4.066   3.002 -0.2961  1.1897 -0.3377
 1121ETH     H4 3910   3.697   4.043   2.970 -1.9156 -2.5857 -0.5221
 1121ETH     H5 3911   3.694   4.274   2.900 -1.0515 -1.1395 -0.3884
 1122ETH      C 3912   1.319   2.419   1.493  0.2594  0.0297  0.3061
 1122ETH     C1 3913   1.419   2.303   1.499 -0.7469 -0.7284 -0.2488
 1122ETH      O 3914   1.361   2.175   1.472  0.0233  0.3382  0.1124
 1122ETH      H 3915   1.261   2.431   1.400 -1.3411 -1.4484  1.0534
 1122ETH     H1 3916   1.367   2.517   1.508 -0.1771  0.0040  2.0227
 1122ETH     H2 3917   1.245   2.409   1.573  1.0155  2.2965  1.3762
 1122ETH     H3 3918   1.500   2.320   1.426 -0.0800  1.4862  0.9106
 1122ETH     H4 3919   1.468   2.308   1.597  1.6917  2.2808 -1.4515
 1122ETH     H5 3920   1.398   2.141   1.389  0.2188 -2.0997  1.1369
 1123ETH      C 3921   4.104   2.439   4.128 -0.3718 -0.6269  0.0149
 1123ETH     C1 3922   4.238   2.425   4.181 -0.9352 -0.1043 -0.0558
 1123ETH      O 3923   4.306   2.549   4.180  0.2126  0.1466 -0.6603
 1123ETH      H 3924   4.110   2.477   4.025 -0.0294  1.5093  0.7665
 1123ETH     H1 3925   4.049   2.525   4.169  0.4898  0.5250 -1.1361
 1123ETH     H2 3926   4.051   2.344   4.133 -1.8005  0.1265 -0.3076
 1123ETH     H3 3927   4.224   2.385   4.282 -2.5976 -1.1707 -0.6639
 1123ETH     H4 3928   4.302   2.353   4.128  0.9587  1.3863  0.0988
 1123ETH     H5 3929   4.372   2.542   4.108 -1.1575  0.8796 -2.0539
 1124ETH      C 3930   0.005   3.284   1.958 -0.3047 -0.4214 -0.1912
 1124ETH     C1 3931   0.016   3.152   2.034  0.5244 -0.3748 -0.4487
 1124ETH      O 3932   0.114   3.076   1.971 -0.6139 -0.8063 -0.1972
 1124ETH      H 3933  -0.019   3.278   1.851 -3.4483 -1.2032  0.4324
 1124ETH     H1 3934   0.094   3.342   1.985  0.7966 -1.9993 -0.3006
 1124ETH     H2 3935  -0.082   3.340   1.996  0.3958  1.3224 -1.0346
 1124ETH     H3 3936   0.036   3.174   2.139 -0.6994 -1.5823  0.0715
 1124ETH     H4 3937  -0.082   3.102   2.031  0.7199 -0.7210 -1.5494
 1124ETH     H5 3938   0.110   2.989   2.013  0.8146 -0.1686  1.3793
 1125ETH      C 3939   3.180   0.922   1.827 -0.0761  0.2932 -0.2673
 1125ETH     C1 3940   3.029   0.945   1.810 -0.1937  0.1449 -0.2922
 1125ETH      O 3941   2.966   0.822   1.798 -0.0395 -0.0302 -0.0436
 1125ETH      H 3942   3.217   0.852   1.752 -0.9917 -1.9083  1.2407
 1125ETH     H1 3943   3.203   0.870   1.921  1.3475  0.8215 -0.2945
 1125ETH     H2 3944   3.241   1.014   1.829 -0.7339  0.7484 -0.6840
 1125ETH     H3 3945   2.995   1.010   1.891  1.9388  0.3459  0.5046
 1125ETH     H4 3946   3.009   1.002   1.718 -2.9080  0.4910  0.4427
 1125ETH     H5 3947   2.881   0.847   1.759  0.4589 -0.8836 -1.7894
 1126ETH      C 3948   0.864   0.408   1.318 -0.3092  0.0526  0.7201
 1126ETH     C1 3949   0.814   0.395   1.464 -0.6695  0.1708  0.1284
 1126ETH      O 3950   0.912   0.448   1.553  0.2719 -0.2577 -0.0452
 1126ETH      H 3951   0.963   0.361   1.313 -0.2162 -0.0722  2.6715
 1126ETH     H1 3952   0.883   0.509   1.279  2.3514 -0.2815  0.9804
 1126ETH     H2 3953   0.796   0.352   1.254  1.3042 -0.6886 -0.3980
 1126ETH     H3 3954   0.721   0.451   1.471 -2.2963 -2.4865  1.2269
 1126ETH     H4 3955   0.806   0.289   1.491  0.0208  0.6812  2.6009
 1126ETH     H5 3956   0.992   0.393   1.561  2.3156  2.3353 -1.0914
 1127ETH      C 3957   1.849   1.273   0.004  0.6093 -0.5482  0.5584
 1127ETH     C1 3958   1.705   1.218  -0.039  0.0934 -0.2629 -0.3731
 1127ETH      O 3959   1.619   1.297   0.033 -0.1134  0.5900 -0.3160
 1127ETH      H 3960   1.878   1.281   0.109  0.7362  0.7604  0.4450
 1127ETH     H1 3961   1.860   1.374  -0.037  0.2314 -0.8414 -0.2895
 1127ETH     H2 3962   1.931   1.216  -0.041  0.2592 -0.6131 -0.0073
 1127ETH     H3 3963   1.697   1.216  -0.148 -0.1311  1.6657 -0.4192
 1127ETH     H4 3964   1.696   1.118   0.005  1.7640  0.6180  2.2460
 1127ETH     H5 3965   1.624   1.258   0.122  0.7950  2.1544  0.3650
 1128ETH      C 3966   2.466   1.097   1.875 -0.5581  0.8749  0.1222
 1128ETH     C1 3967   2.351   1.165   1.946 -0.0202  0.5988  0.3642
 1128ETH      O 3968   2.291   1.265   1.870 -0.4704  0.1451 -0.1483
 1128ETH      H 3969   2.553   1.162   1.864  0.4799 -0.2865  1.2085
 1128ETH     H1 3970   2.440   1.068   1.772  0.0346  1.8770 -0.3281
 1128ETH     H2 3971   2.502   1.017   1.940 -2.0960  0.7064  0.8218
 1128ETH     H3 3972   2.269   1.096   1.966 -1.2173  2.0230  0.5953
 1128ETH     H4 3973   2.394   1.202   2.040  2.2992  0.0179 -0.3896
 1128ETH     H5 3974   2.248   1.211   1.801 -0.6566  0.3687 -0.2090
 1129ETH      C 3975   1.808   3.223   0.092  0.0009  0.0544  0.8571
 1129ETH     C1 3976   1.680   3.162   0.054 -0.4200 -0.5118  0.1037
 1129ETH      O 3977   1.632   3.088   0.165  0.0719  0.1551 -1.1776
 1129ETH      H 3978   1.879   3.154   0.139 -0.0456 -1.4520 -1.1441
 1129ETH     H1 3979   1.794   3.296   0.172 -2.8908 -0.1771  0.6702
 1129ETH     H2 3980   1.854   3.266   0.001 -1.0831 -1.6796 -0.5802
 1129ETH     H3 3981   1.608   3.241   0.030  0.5568  0.0777 -0.9806
 1129ETH     H4 3982   1.702   3.102  -0.035  1.2653  0.9938 -0.5452
 1129ETH     H5 3983   1.714   3.044   0.194  0.4580  0.4804 -1.7485
 1130ETH      C 3984   2.597   0.534   3.550 -0.1753 -0.4659  0.0444
 1130ETH     C1 3985   2.731   0.553   3.468 -0.0383  0.2225 -0.6941
 1130ETH      O 3986   2.687   0.623   3.347 -0.2477 -0.3197 -0.3247
 1130ETH      H 3987   2.536   0.456   3.502  0.1521 -0.2437 -0.7473
 1130ETH     H1 3988   2.538   0.626   3.550  0.0948 -0.2895 -0.3077
 1130ETH     H2 3989   2.617   0.498   3.651 -1.4067 -2.2913 -0.3016
 1130ETH     H3 3990   2.797   0.611   3.535 -1.3554  1.0257 -0.0367
 1130ETH     H4 3991   2.775   0.455   3.446 -0.3597 -0.0052 -0.3283
 1130ETH     H5 3992   2.643   0.555   3.293 -3.3582  0.6501  0.7420
 1131ETH      C 3993   1.068   1.686   3.578 -0.3068  0.9945  0.3370
 1131ETH     C1 3994   1.113   1.809   3.497  0.3597  0.4986 -0.1527
 1131ETH      O 3995   1.252   1.850   3.527 -0.0409  0.0455 -0.0385
 1131ETH      H 3996   1.114   1.682   3.677  1.0997  2.9809 -0.1993
 1131ETH     H1 3997   1.090   1.594   3.522  0.3335  1.3877 -0.0686
 1131ETH     H2 3998   0.962   1.681   3.607 -0.4234  1.3881 -0.0201
 1131ETH     H3 3999   1.097   1.793   3.390  1.8237  1.1138 -0.4872
 1131ETH     H4 4000   1.034   1.881   3.523 -0.9254 -1.1285  0.5876
 1131ETH     H5 4001   1.273   1.924   3.467  2.0579 -1.4864 -1.3100
 1132ETH      C 4002   0.011   3.321   3.563 -0.0571 -0.3414  0.4033
 1132ETH     C1 4003  -0.091   3.413   3.633  0.1931  0.0810 -0.6160
 1132ETH      O 4004  -0.033   3.542   3.647  0.1140 -0.0010  0.0569
 1132ETH      H 4005  -0.007   3.338   3.456 -1.0960  0.0643  0.6365
 1132ETH     H1 4006  -0.008   3.213   3.570  0.4121 -0.4766 -0.2187
 1132ETH     H2 4007   0.116   3.341   3.591  0.1937 -0.4033 -0.4541
 1132ETH     H3 4008  -0.189   3.414   3.584  0.5671  1.9366 -1.4265
 1132ETH     H4 4009  -0.115   3.373   3.732  0.8908  1.5181  0.1774
 1132ETH     H5 4010  -0.004   3.564   3.556 -0.0552  1.0498  0.2446
 1133ETH      C 4011   3.481   2.437   0.632 -0.0847  0.6032 -0.0314
 1133ETH     C1 4012   3.335   2.397   0.605 -0.0042  0.1731 -0.2755
 1133ETH      O 4013   3.288   2.276   0.660 -0.0242  0.3166  0.1666
 1133ETH      H 4014   3.538   2.366   0.570  0.1544 -2.0786  2.9949
 1133ETH     H1 4015   3.514   2.419   0.735 -0.9555  1.2237  0.3648
 1133ETH     H2 4016   3.515   2.538   0.607  1.9512 -0.0960 -0.3620
 1133ETH     H3 4017   3.285   2.485   0.646  0.9771  0.5244  0.2116
 1133ETH     H4 4018   3.329   2.399   0.495  0.3886 -0.6753 -0.3239
 1133ETH     H5 4019   3.314   2.210   0.593  0.6315  0.2418  0.4913
 1134ETH      C 4020   3.799   0.955   1.284  0.6532 -0.4605 -0.0917
 1134ETH     C1 4021   3.819   1.056   1.168  0.5416  0.0711  0.2389
 1134ETH      O 4022   3.874   1.177   1.221 -0.1082  0.1817 -0.1308
 1134ETH      H 4023   3.764   0.857   1.250  1.9553 -0.9207 -0.1569
 1134ETH     H1 4024   3.734   0.985   1.366  0.3294 -0.1506 -0.4588
 1134ETH     H2 4025   3.897   0.935   1.330  1.0127  1.0657 -0.1334
 1134ETH     H3 4026   3.892   1.010   1.100 -0.4526 -0.6407 -0.3572
 1134ETH     H4 4027   3.727   1.073   1.111 -0.7172 -1.7413  1.6179
 1134ETH     H5 4028   3.846   1.247   1.161 -0.1469  0.0563 -0.2609
 1135ETH      C 4029   0.755   1.647   3.034 -0.3814  0.2706  0.6489
 1135ETH     C1 4030   0.836   1.710   2.917  0.0104  0.4723 -0.0421
 1135ETH      O 4031   0.785   1.842   2.898 -0.5081 -0.0029  0.5908
 1135ETH      H 4032   0.741   1.713   3.120  2.0911 -2.2604  3.1945
 1135ETH     H1 4033   0.813   1.562   3.072  0.3986  0.2439 -0.5218
 1135ETH     H2 4034   0.658   1.610   3.000  0.0839  0.6603 -1.2098
 1135ETH     H3 4035   0.943   1.717   2.940 -0.2635 -1.2040  2.1157
 1135ETH     H4 4036   0.824   1.652   2.824  1.6767  1.1148 -0.6812
 1135ETH     H5 4037   0.838   1.889   2.832 -0.0790  1.9634  2.2165
 1136ETH      C 4038   3.915   0.595   1.431  0.3058 -0.0952  0.4073
 1136ETH     C1 4039   4.029   0.588   1.528 -0.3393 -0.3739  0.0664
 1136ETH      O 4040   4.151   0.576   1.458 -0.3389  0.4679  0.0361
 1136ETH      H 4041   3.905   0.500   1.376 -2.3432  0.8520 -0.9222
 1136ETH     H1 4042   3.936   0.680   1.365  1.1235  0.7886  1.7842
 1136ETH     H2 4043   3.818   0.615   1.477 -0.8210  0.9828 -2.2396
 1136ETH     H3 4044   4.020   0.683   1.582  1.1147 -0.3788  0.3362
 1136ETH     H4 4045   4.011   0.503   1.596  1.1464 -1.2993 -0.6453
 1136ETH     H5 4046   4.166   0.480   1.459  0.5697  0.5928  1.7765
 1137ETH      C 4047   0.739   0.556   2.703 -0.1945 -0.3978 -0.1190
 1137ETH     C1 4048   0.635   0.514   2.601 -0.0401  0.3684 -0.4946
 1137ETH      O 4049   0.647   0.605   2.497 -0.1860 -0.7289  0.3720
 1137ETH      H 4050   0.709   0.653   2.746  2.1504  0.2900  0.1226
 1137ETH     H1 4051   0.842   0.579   2.673 -0.3231 -0.1292 -0.3647
 1137ETH     H2 4052   0.736   0.490   2.791  0.2805  1.6844  1.5561
 1137ETH     H3 4053   0.648   0.407   2.579 -0.8644 -0.1723  1.3970
 1137ETH     H4 4054   0.532   0.523   2.638  0.3575 -1.2893  1.2343
 1137ETH     H5 4055   0.740   0.615   2.471 -0.3175  1.0902  0.4815
 1138ETH      C 4056   4.135   1.212   0.382 -0.5089  0.3368  0.9388
 1138ETH     C1 4057   3.992   1.198   0.337 -0.3095  0.3343 -0.0029
 1138ETH      O 4058   3.954   1.060   0.318 -0.1994 -0.1300  0.7049
 1138ETH      H 4059   4.147   1.314   0.419  0.2422  0.0571  1.4775
 1138ETH     H1 4060   4.193   1.199   0.290 -0.1574 -0.9165  1.3239
 1138ETH     H2 4061   4.158   1.140   0.461  1.7870 -0.5040 -0.3996
 1138ETH     H3 4062   3.934   1.229   0.425 -0.1398  1.4844 -0.2891
 1138ETH     H4 4063   3.983   1.257   0.246 -0.0374  0.6520  0.1749
 1138ETH     H5 4064   3.890   1.068   0.245  0.7519  1.8445  0.0041
 1139ETH      C 4065   1.764   0.992   1.174 -0.2898  0.4876 -0.3327
 1139ETH     C1 4066   1.877   1.087   1.211  0.3511  0.1459 -0.2653
 1139ETH      O 4067   1.834   1.154   1.336 -0.3668  0.5397  0.4398
 1139ETH      H 4068   1.805   0.925   1.098 -2.2030 -0.5890 -0.4855
 1139ETH     H1 4069   1.677   1.039   1.125 -1.1032 -1.3406 -0.7082
 1139ETH     H2 4070   1.729   0.926   1.254  0.5997  0.4111 -0.0059
 1139ETH     H3 4071   1.969   1.030   1.230  0.2317 -0.4726 -1.4765
 1139ETH     H4 4072   1.902   1.147   1.123 -1.6944  1.1580 -0.2121
 1139ETH     H5 4073   1.780   1.232   1.312  0.8322  1.3219  0.1665
 1140ETH      C 4074   0.300   1.305   4.171 -0.4476  0.0388 -0.0504
 1140ETH     C1 4075   0.405   1.228   4.255 -0.5712  0.8614 -0.5104
 1140ETH      O 4076   0.473   1.122   4.185 -0.3166 -0.1580  0.0760
 1140ETH      H 4077   0.215   1.244   4.139 -1.3380  1.0671  0.2620
 1140ETH     H1 4078   0.353   1.346   4.085  1.7712  0.1904  1.3038
 1140ETH     H2 4079   0.258   1.392   4.224 -1.2646 -0.0636 -0.5181
 1140ETH     H3 4080   0.476   1.304   4.290 -2.6539  2.2401  0.9654
 1140ETH     H4 4081   0.359   1.184   4.345 -1.3742  0.9914 -0.8504
 1140ETH     H5 4082   0.565   1.111   4.213 -0.1788 -0.4459 -0.4922
 1141ETH      C 4083   0.920   0.486   3.701  0.3083  0.1819 -0.4230
 1141ETH     C1 4084   0.774   0.485   3.739 -0.7460 -0.0302 -0.1056
 1141ETH      O 4085   0.725   0.356   3.717  0.0047 -0.2766  0.0526
 1141ETH      H 4086   0.944   0.585   3.742  0.0778  0.4370 -0.8905
 1141ETH     H1 4087   0.940   0.485   3.593 -2.0107  3.2630 -1.0070
 1141ETH     H2 4088   0.969   0.409   3.761  2.0520  0.9061 -0.8372
 1141ETH     H3 4089   0.774   0.516   3.845  1.1488  1.2822 -0.4421
 1141ETH     H4 4090   0.724   0.557   3.673 -0.2866  2.2048  1.8419
 1141ETH     H5 4091   0.793   0.302   3.761  0.5830  1.1512  1.0063
 1142ETH      C 4092   2.140   0.186   1.950 -0.1860 -0.0443  0.8764
 1142ETH     C1 4093   2.121   0.112   2.079 -0.1610  0.4390  0.2760
 1142ETH      O 4094   2.237   0.113   2.159 -0.5883 -0.2276  0.5868
 1142ETH      H 4095   2.242   0.166   1.915  0.3797  0.9916  1.8511
 1142ETH     H1 4096   2.117   0.293   1.963  0.7214  0.2726 -0.0183
 1142ETH     H2 4097   2.074   0.151   1.870  1.0344  0.2782 -0.3005
 1142ETH     H3 4098   2.039   0.155   2.137 -1.2328 -1.0227 -0.0961
 1142ETH     H4 4099   2.106   0.006   2.054  3.1805 -0.0263 -0.1819
 1142ETH     H5 4100   2.307   0.071   2.107 -1.2095  0.9508 -1.3081
 1143ETH      C 4101   3.794   2.192   3.872 -0.3425  0.9334  0.3623
 1143ETH     C1 4102   3.877   2.317   3.865 -0.3697  0.0669  0.1765
 1143ETH      O 4103   4.013   2.281   3.830  0.0867  0.1357 -0.2803
 1143ETH      H 4104   3.816   2.137   3.780 -1.0971  1.3824 -0.0954
 1143ETH     H1 4105   3.686   2.204   3.879 -0.5552  0.0533 -1.0226
 1143ETH     H2 4106   3.830   2.135   3.959  1.3037 -0.4650 -1.1464
 1143ETH     H3 4107   3.839   2.375   3.779 -1.2535 -2.5968 -1.3391
 1143ETH     H4 4108   3.880   2.372   3.960  0.3814 -0.4754  0.4803
 1143ETH     H5 4109   4.010   2.184   3.836  1.9093 -0.0489 -1.4256
 1144ETH      C 4110   3.577   0.165   0.567  0.7683 -0.1211 -0.0856
 1144ETH     C1 4111   3.436   0.084   0.543  0.1920 -0.4103  0.0755
 1144ETH      O 4112   3.365   0.077   0.668  0.1413 -0.5209 -0.1512
 1144ETH      H 4113   3.657   0.109   0.616  0.1143  0.4451  1.7033
 1144ETH     H1 4114   3.543   0.248   0.630 -1.3298 -0.8295 -0.1997
 1144ETH     H2 4115   3.613   0.211   0.474  1.3721 -0.8448 -0.2151
 1144ETH     H3 4116   3.367   0.131   0.472 -0.4450  0.1829  1.0649
 1144ETH     H4 4117   3.468  -0.016   0.513  2.0929 -0.2325  1.3004
 1144ETH     H5 4118   3.369   0.159   0.720 -0.9133 -1.0266  0.7926
 1145ETH      C 4119   1.363   0.638   1.429 -0.0580 -0.5819 -0.2625
 1145ETH     C1 4120   1.358   0.516   1.334 -0.0995 -0.1176  0.5275
 1145ETH      O 4121   1.225   0.475   1.295 -0.0327  0.5762 -0.3110
 1145ETH      H 4122   1.375   0.590   1.526  2.9947  0.4965 -0.0252
 1145ETH     H1 4123   1.270   0.695   1.435 -1.6357 -2.8709 -1.2262
 1145ETH     H2 4124   1.443   0.710   1.410 -0.2731 -0.4621 -0.7441
 1145ETH     H3 4125   1.417   0.537   1.245 -1.3403  0.6560 -0.1401
 1145ETH     H4 4126   1.400   0.429   1.387 -2.5913 -0.7571  1.6207
 1145ETH     H5 4127   1.228   0.427   1.210  0.2631  1.1398 -0.6281
 1146ETH      C 4128   3.877   2.627   2.864  0.2374 -0.6438  0.0839
 1146ETH     C1 4129   3.833   2.503   2.787 -0.1712 -0.0133 -0.3979
 1146ETH      O 4130   3.805   2.542   2.657  0.0583  0.1467 -0.5194
 1146ETH      H 4131   3.813   2.714   2.845  1.3255  0.1528  0.0206
 1146ETH     H1 4132   3.984   2.648   2.868  0.2319 -0.8015  1.6197
 1146ETH     H2 4133   3.836   2.608   2.964  1.2739  0.8962  0.8360
 1146ETH     H3 4134   3.915   2.431   2.783 -0.2920 -0.4070  2.1283
 1146ETH     H4 4135   3.746   2.460   2.839 -1.3652 -0.6642 -2.7765
 1146ETH     H5 4136   3.866   2.612   2.627  1.3778 -1.8250 -2.8014
 1147ETH      C 4137   2.010   3.189   1.368  0.0661  0.2738  0.1482
 1147ETH     C1 4138   2.023   3.326   1.300 -0.3792 -0.8856 -0.4861
 1147ETH      O 4139   2.038   3.429   1.399 -0.2598  0.0613 -0.5074
 1147ETH      H 4140   1.934   3.178   1.446  0.0589  1.5548  0.3382
 1147ETH     H1 4141   2.107   3.170   1.415  1.4677 -0.7312 -2.9025
 1147ETH     H2 4142   1.980   3.113   1.295 -0.2248  0.4965  0.0340
 1147ETH     H3 4143   2.100   3.333   1.222 -0.6996  0.2897 -0.7035
 1147ETH     H4 4144   1.929   3.334   1.245 -1.1222  1.5721  1.0287
 1147ETH     H5 4145   1.953   3.476   1.408  0.5609  1.6855 -0.7089
 1148ETH      C 4146   3.879   3.170   0.492  0.2148  0.8550  0.5471
 1148ETH     C1 4147   3.831   3.044   0.561 -0.2405  0.3401  0.2241
 1148ETH      O 4148   3.715   2.986   0.504  0.6582 -0.9984  0.3801
 1148ETH      H 4149   3.954   3.223   0.552  1.9132 -2.1207  1.2858
 1148ETH     H1 4150   3.797   3.239   0.470  0.6535  0.4999 -2.7301
 1148ETH     H2 4151   3.935   3.144   0.401  0.5622 -0.4679  1.1143
 1148ETH     H3 4152   3.918   2.980   0.544  0.4258  0.5647  2.3634
 1148ETH     H4 4153   3.824   3.055   0.670  0.8336  0.2027  0.3179
 1148ETH     H5 4154   3.649   3.057   0.498  0.7235 -1.0675 -2.5103
 1149ETH      C 4155   0.772   3.461   0.573 -0.2355  0.0297  0.2705
 1149ETH     C1 4156   0.924   3.497   0.571 -0.8431 -0.2009 -0.4523
 1149ETH      O 4157   0.976   3.515   0.449 -0.1417  0.3174  0.1498
 1149ETH      H 4158   0.704   3.517   0.508  1.8077  1.3627 -0.8331
 1149ETH     H1 4159   0.738   3.462   0.677 -1.0874  0.4458 -0.0086
 1149ETH     H2 4160   0.771   3.355   0.543  1.1683 -0.5951  2.2352
 1149ETH     H3 4161   0.935   3.597   0.613  0.8648 -0.4537 -0.2556
 1149ETH     H4 4162   0.986   3.425   0.626 -0.6258 -1.2532 -1.9925
 1149ETH     H5 4163   0.900   3.522   0.388  1.2003 -0.4748 -1.7357
 1150ETH      C 4164   3.750   3.135   2.581  0.0953 -0.5907  0.1378
 1150ETH     C1 4165   3.818   3.151   2.441 -0.3901 -0.0343 -0.0289
 1150ETH      O 4166   3.730   3.127   2.330 -0.3354 -0.3288 -0.3634
 1150ETH      H 4167   3.687   3.224   2.593 -0.9422 -1.5536  2.4647
 1150ETH     H1 4168   3.826   3.140   2.659  0.6414  0.4984 -0.4361
 1150ETH     H2 4169   3.681   3.050   2.588 -1.7137  0.8710  1.1000
 1150ETH     H3 4170   3.862   3.252   2.439  1.5992 -0.8342  0.8906
 1150ETH     H4 4171   3.904   3.084   2.446 -0.9766 -0.8167 -0.3075
 1150ETH     H5 4172   3.745   3.203   2.271 -3.1931  0.0686 -0.7559
 1151ETH      C 4173   4.197   1.599   0.533  0.6427 -0.4956 -0.0684
 1151ETH     C1 4174   4.105   1.598   0.657  0.5460  0.3682 -0.3813
 1151ETH      O 4175   4.091   1.727   0.719 -0.2632 -0.5481 -0.6518
 1151ETH      H 4176   4.167   1.672   0.456 -0.4635 -0.0678  0.7440
 1151ETH     H1 4177   4.210   1.497   0.495  0.7434 -1.2034  1.7796
 1151ETH     H2 4178   4.291   1.650   0.560 -0.3963 -0.4635  4.0860
 1151ETH     H3 4179   4.006   1.564   0.623 -0.8989  0.5352  3.2027
 1151ETH     H4 4180   4.152   1.526   0.724  0.1431  0.1621 -0.3144
 1151ETH     H5 4181   4.075   1.716   0.814  1.5514  1.8938  0.0375
 1152ETH      C 4182   0.308   0.958   0.653  0.1725  0.2093  0.2475
 1152ETH     C1 4183   0.379   0.842   0.716  0.2834  0.5734  0.6752
 1152ETH      O 4184   0.464   0.886   0.820 -0.1306 -0.7035 -0.3258
 1152ETH      H 4185   0.376   1.042   0.639  1.1351 -0.7517 -1.1460
 1152ETH     H1 4186   0.226   0.996   0.716  1.7596  0.6783  2.1380
 1152ETH     H2 4187   0.267   0.924   0.557  0.0671 -0.7268  0.6052
 1152ETH     H3 4188   0.302   0.777   0.758 -0.8383  2.4394  1.5996
 1152ETH     H4 4189   0.452   0.801   0.644 -0.0571  3.4867 -1.5058
 1152ETH     H5 4190   0.424   0.964   0.863  0.9118  0.4157 -1.3241
 1153ETH      C 4191   2.885   1.609   1.368 -0.1463  0.5263  0.2569
 1153ETH     C1 4192   2.831   1.585   1.224  0.4233  0.7198  0.0397
 1153ETH      O 4193   2.841   1.711   1.154 -0.3359 -0.5498 -0.3723
 1153ETH      H 4194   2.881   1.522   1.435 -1.7840  1.0857  0.9136
 1153ETH     H1 4195   2.838   1.690   1.425 -1.8488 -0.6940  0.6701
 1153ETH     H2 4196   2.990   1.636   1.346  0.0258 -0.3860 -0.0874
 1153ETH     H3 4197   2.879   1.504   1.168 -4.5001 -0.5715 -2.8822
 1153ETH     H4 4198   2.727   1.551   1.230  0.9350 -2.2252 -3.7997
 1153ETH     H5 4199   2.805   1.777   1.216 -1.3065  0.6285 -2.0933
 1154ETH      C 4200   3.268   0.063   2.085  0.1656  0.4970 -1.0840
 1154ETH     C1 4201   3.161  -0.006   2.172 -1.0350  0.2333 -0.2393
 1154ETH      O 4202   3.165  -0.144   2.139  0.1235  0.3069 -0.5674
 1154ETH      H 4203   3.282   0.165   2.123  2.3231 -0.1238 -0.0705
 1154ETH     H1 4204   3.241   0.071   1.979  0.8811 -1.4313 -1.4435
 1154ETH     H2 4205   3.367   0.017   2.078  1.1029  2.4727 -1.7026
 1154ETH     H3 4206   3.187   0.011   2.278 -4.4629 -0.1689  0.7708
 1154ETH     H4 4207   3.065   0.041   2.151 -0.4746  2.0484  1.0632
 1154ETH     H5 4208   3.249  -0.187   2.162 -0.8211 -2.0632 -1.2404
 1155ETH      C 4209   2.515   1.222   1.105  0.1005  0.3284 -0.0692
 1155ETH     C1 4210   2.567   1.319   0.995  0.9316  0.4045 -0.0108
 1155ETH      O 4211   2.472   1.412   0.963  0.8456 -0.2962  0.1155
 1155ETH      H 4212   2.596   1.156   1.140  0.5602  1.0486  0.2520
 1155ETH     H1 4213   2.429   1.165   1.068 -0.0376  0.3970  0.1488
 1155ETH     H2 4214   2.488   1.274   1.198 -0.2774 -0.6786  0.4037
 1155ETH     H3 4215   2.648   1.374   1.045  0.6206  0.4454  0.4483
 1155ETH     H4 4216   2.597   1.262   0.905  0.6036  0.1062  0.0659
 1155ETH     H5 4217   2.437   1.461   1.039  0.9967 -0.1622  0.1004
 1156ETH      C 4218   1.736   1.700   4.087  0.1957 -0.1690 -0.5332
 1156ETH     C1 4219   1.714   1.691   3.934 -0.3009  0.0891  0.2488
 1156ETH      O 4220   1.663   1.564   3.900  0.0555  0.4138  0.2843
 1156ETH      H 4221   1.783   1.793   4.121 -2.5582  1.2854 -0.4392
 1156ETH     H1 4222   1.814   1.629   4.119  2.6003  3.3775  2.2006
 1156ETH     H2 4223   1.641   1.688   4.141 -0.5593  2.1830 -1.2264
 1156ETH     H3 4224   1.647   1.775   3.910  1.7496  1.8200  0.3184
 1156ETH     H4 4225   1.805   1.715   3.878 -0.1474 -0.6234  0.1867
 1156ETH     H5 4226   1.599   1.553   3.973 -0.9899  2.1695 -0.2956
 1157ETH      C 4227   0.181   0.959   3.283 -0.2738 -0.0906  0.2477
 1157ETH     C1 4228   0.257   0.831   3.279  0.5498 -0.0607  0.1036
 1157ETH      O 4229   0.293   0.780   3.401 -0.5120 -0.1095  0.2012
 1157ETH      H 4230   0.239   1.049   3.307 -0.4066 -0.1270  0.7204
 1157ETH     H1 4231   0.107   0.958   3.364  2.2530  1.1040  2.7480
 1157ETH     H2 4232   0.136   0.966   3.184 -0.1216 -2.1183  0.0005
 1157ETH     H3 4233   0.201   0.764   3.214 -0.9174  2.8557 -1.8207
 1157ETH     H4 4234   0.351   0.846   3.225  0.2178  0.3099 -0.3748
 1157ETH     H5 4235   0.310   0.686   3.387  1.9151  0.1320  0.9806
 1158ETH      C 4236   4.232   0.626   3.445  0.0730  0.1795  0.2346
 1158ETH     C1 4237   4.127   0.520   3.397  1.0457 -0.0445 -0.0913
 1158ETH      O 4238   4.111   0.532   3.251 -0.3668 -0.1177  0.1749
 1158ETH      H 4239   4.211   0.728   3.410  1.3008  0.3328 -0.1153
 1158ETH     H1 4240   4.329   0.602   3.400 -0.5342  0.4601 -1.2848
 1158ETH     H2 4241   4.246   0.611   3.553  1.1457 -2.1198 -0.1637
 1158ETH     H3 4242   4.153   0.417   3.423 -1.0155 -0.5204  0.2156
 1158ETH     H4 4243   4.034   0.541   3.451  1.2338  0.5362  0.0143
 1158ETH     H5 4244   4.026   0.495   3.222  0.6103 -0.4588 -2.4714
 1159ETH      C 4245   2.948   1.825   0.105 -0.4768 -0.1546 -0.3163
 1159ETH     C1 4246   2.812   1.898   0.099  0.5082 -0.4169  1.0331
 1159ETH      O 4247   2.732   1.838  -0.001 -0.0016  0.3195  0.0881
 1159ETH      H 4248   2.938   1.730   0.159  0.2860 -0.0135  0.0885
 1159ETH     H1 4249   3.023   1.883   0.160  0.0301  0.3990 -1.5543
 1159ETH     H2 4250   2.995   1.803   0.008 -1.3686 -1.1289 -0.5433
 1159ETH     H3 4251   2.772   1.881   0.200  0.5849 -0.6641  1.0229
 1159ETH     H4 4252   2.836   2.002   0.077  0.2940 -0.9567 -2.1604
 1159ETH     H5 4253   2.659   1.899  -0.020  0.2026  0.5694  0.0920
 1160ETH      C 4254   1.836   0.055   3.678 -0.2090  0.3289 -0.1286
 1160ETH     C1 4255   1.954   0.022   3.772 -0.1573 -0.1258 -0.1078
 1160ETH      O 4256   2.060  -0.040   3.696  0.5753  0.2373  0.3650
 1160ETH      H 4257   1.865   0.097   3.581  0.8038 -0.1404 -0.0533
 1160ETH     H1 4258   1.776   0.132   3.727 -0.1263  0.3897 -0.1215
 1160ETH     H2 4259   1.773  -0.030   3.650  0.4945 -0.1083 -0.4398
 1160ETH     H3 4260   1.984   0.117   3.819  1.1026 -0.3104 -0.5026
 1160ETH     H4 4261   1.924  -0.055   3.844 -1.5399 -0.0443 -0.5603
 1160ETH     H5 4262   2.138  -0.028   3.753  0.3467  1.2207  0.4964
 1161ETH      C 4263   1.715   1.453   2.546  0.3405  0.4218  0.2985
 1161ETH     C1 4264   1.776   1.369   2.446 -0.1744 -0.6944  0.4017
 1161ETH      O 4265   1.919   1.369   2.467 -0.3441  0.1649  0.5281
 1161ETH      H 4266   1.769   1.548   2.550  1.6200 -0.2772  0.0587
 1161ETH     H1 4267   1.732   1.392   2.636  0.4428 -3.5379 -2.1733
 1161ETH     H2 4268   1.607   1.465   2.530  0.2510 -0.2830  0.3023
 1161ETH     H3 4269   1.735   1.268   2.448  0.2120 -0.9758 -2.0409
 1161ETH     H4 4270   1.766   1.413   2.346 -1.9742 -1.9999 -0.0354
 1161ETH     H5 4271   1.954   1.458   2.448 -1.1806  0.0755 -1.6488
 1162ETH      C 4272   2.091   0.360   0.140 -0.3621 -0.6604  0.0484
 1162ETH     C1 4273   2.246   0.379   0.135  0.2260  0.5939  0.0523
 1162ETH      O 4274   2.277   0.477   0.037 -0.3958  0.0391  0.2379
 1162ETH      H 4275   2.040   0.318   0.052 -2.0862  0.8594  0.2845
 1162ETH     H1 4276   2.036   0.449   0.170 -1.6340 -1.5643  0.4725
 1162ETH     H2 4277   2.066   0.286   0.217 -0.0831 -2.8537 -1.8336
 1162ETH     H3 4278   2.286   0.404   0.234  0.6497 -0.3329  0.1232
 1162ETH     H4 4279   2.301   0.288   0.111  2.6079  1.9068  0.2137
 1162ETH     H5 4280   2.267   0.564   0.080 -0.1249  0.6705 -0.9389
 1163ETH      C 4281   0.860   0.260   0.219 -0.0630 -0.9524  0.4060
 1163ETH     C1 4282   0.951   0.295   0.337 -0.3746  0.2102 -0.3148
 1163ETH      O 4283   1.003   0.419   0.328  0.0830  0.4921 -0.2034
 1163ETH      H 4284   0.758   0.300   0.227  0.0238 -0.7602  0.5492
 1163ETH     H1 4285   0.839   0.153   0.207 -1.6262 -0.6178 -0.1248
 1163ETH     H2 4286   0.910   0.295   0.128 -0.8831  0.8791  0.6309
 1163ETH     H3 4287   0.893   0.298   0.430  0.1513  2.9723  0.0168
 1163ETH     H4 4288   1.030   0.220   0.349 -1.1508 -0.9124 -1.8062
 1163ETH     H5 4289   0.996   0.466   0.413  1.0678 -1.6964  1.1817
 1164ETH      C 4290   1.600   0.044   3.273  0.5539 -0.1221 -0.0066
 1164ETH     C1 4291   1.566  -0.104   3.304  0.1994 -0.3172  0.3118
 1164ETH      O 4292   1.607  -0.176   3.188 -0.1432 -0.2007  0.1929
 1164ETH      H 4293   1.710   0.047   3.268  0.6269  1.5708  1.6873
 1164ETH     H1 4294   1.561   0.113   3.348 -0.0148 -1.5465  1.0370
 1164ETH     H2 4295   1.561   0.076   3.176  0.8942  0.3056 -0.0079
 1164ETH     H3 4296   1.631  -0.134   3.387  2.0955 -0.3326 -1.1065
 1164ETH     H4 4297   1.459  -0.125   3.317 -0.0847  0.3050 -0.8624
 1164ETH     H5 4298   1.597  -0.118   3.110  2.4101 -3.5748 -3.0491
 1165ETH      C 4299   1.682   0.323   2.278  0.1544 -0.5758  0.6357
 1165ETH     C1 4300   1.771   0.213   2.347 -0.0583  0.3486 -0.2239
 1165ETH      O 4301   1.674   0.117   2.393 -0.1222  0.7448 -0.7797
 1165ETH      H 4302   1.744   0.394   2.221 -0.4236 -0.0043  0.7084
 1165ETH     H1 4303   1.610   0.370   2.346  1.5573  0.8662  1.1725
 1165ETH     H2 4304   1.611   0.290   2.201 -1.2296  3.5244 -0.0853
 1165ETH     H3 4305   1.838   0.163   2.277 -0.7429 -1.1273  0.1485
 1165ETH     H4 4306   1.825   0.252   2.435 -0.1028 -0.2607  0.0735
 1165ETH     H5 4307   1.608   0.108   2.322 -1.5274 -0.2719  0.5887
 1166ETH      C 4308   1.294   0.210   2.971 -0.1217  0.2979 -0.7366
 1166ETH     C1 4309   1.253   0.123   3.094  0.5286 -0.6969 -0.1563
 1166ETH      O 4310   1.119   0.079   3.072 -0.5227 -0.0895  0.0648
 1166ETH      H 4311   1.220   0.286   2.944  0.3947  1.9332  2.0524
 1166ETH     H1 4312   1.323   0.150   2.884  2.5041 -1.3475  1.1238
 1166ETH     H2 4313   1.389   0.257   2.998 -0.3380  0.5119 -0.3345
 1166ETH     H3 4314   1.324   0.041   3.111  1.3956  0.3839  1.7640
 1166ETH     H4 4315   1.257   0.186   3.183 -0.4585  1.9713 -1.8705
 1166ETH     H5 4316   1.061   0.151   3.104  0.0799  1.4455 -2.0337
 1167ETH      C 4317   0.590   0.301   2.162 -0.5688 -0.5395  0.0208
 1167ETH     C1 4318   0.709   0.277   2.262 -0.6730  0.4740  0.3455
 1167ETH      O 4319   0.707   0.138   2.286 -0.5140 -0.5384  0.5460
 1167ETH      H 4320   0.595   0.405   2.131  2.0532 -1.1723 -2.0323
 1167ETH     H1 4321   0.501   0.292   2.225  0.4367 -0.2093  1.5470
 1167ETH     H2 4322   0.594   0.230   2.078 -0.2824  1.0211 -1.3225
 1167ETH     H3 4323   0.803   0.294   2.208 -1.1922  1.2776 -0.3349
 1167ETH     H4 4324   0.701   0.339   2.351 -0.3643  2.9209 -1.2434
 1167ETH     H5 4325   0.799   0.110   2.296 -0.4400 -1.4848 -2.0295
 1168ETH      C 4326   3.391   1.364   3.801  0.6661 -0.3629  0.2016
 1168ETH     C1 4327   3.423   1.287   3.675 -0.4658  0.6515 -0.4312
 1168ETH      O 4328   3.301   1.257   3.608 -0.5436 -0.6493  0.0745
 1168ETH      H 4329   3.484   1.380   3.858  1.8267  1.6429 -2.0921
 1168ETH     H1 4330   3.327   1.301   3.864 -0.3488  1.5592  1.1915
 1168ETH     H2 4331   3.341   1.458   3.773  3.6894  0.8744 -1.4866
 1168ETH     H3 4332   3.494   1.343   3.614 -1.3048  0.3280 -1.7496
 1168ETH     H4 4333   3.462   1.187   3.696 -1.2437  0.9485  2.9423
 1168ETH     H5 4334   3.222   1.286   3.658 -0.0577 -0.9880  1.0556
 1169ETH      C 4335   2.741   1.081   0.736  0.2005  0.7249  0.2184
 1169ETH     C1 4336   2.826   1.009   0.635 -0.9165 -0.0792 -0.5828
 1169ETH      O 4337   2.910   1.099   0.572  0.1091 -0.0202 -0.4130
 1169ETH      H 4338   2.666   1.145   0.689  1.1606  1.3947 -0.4274
 1169ETH     H1 4339   2.800   1.148   0.798  1.5394  2.4704 -2.7167
 1169ETH     H2 4340   2.693   1.008   0.802  1.2570  0.7946  1.0932
 1169ETH     H3 4341   2.889   0.933   0.682  0.1346  1.2094  0.1759
 1169ETH     H4 4342   2.761   0.951   0.569 -0.8847 -0.6822 -0.0890
 1169ETH     H5 4343   2.926   1.051   0.488 -0.1182 -2.9185  1.0806
 1170ETH      C 4344   3.759   1.162   3.842 -0.0989  0.0736 -0.4769
 1170ETH     C1 4345   3.660   1.101   3.950 -0.3284 -0.4421  0.0994
 1170ETH      O 4346   3.727   1.108   4.070  0.0938  0.1228 -0.4626
 1170ETH      H 4347   3.760   1.270   3.858  0.1082  0.1172 -0.7840
 1170ETH     H1 4348   3.722   1.141   3.741 -0.8093 -1.0499 -0.0143
 1170ETH     H2 4349   3.859   1.119   3.854 -0.6929 -1.2000  0.1335
 1170ETH     H3 4350   3.569   1.162   3.953  0.2835  0.5575  4.2667
 1170ETH     H4 4351   3.641   0.997   3.920  0.2139 -0.2376 -1.0240
 1170ETH     H5 4352   3.690   1.046   4.135  1.2166 -1.0368 -0.8843
 1171ETH      C 4353   0.284   0.189   1.346  0.2581  0.1529 -0.3149
 1171ETH     C1 4354   0.441   0.186   1.332 -0.1414  0.3837 -0.1594
 1171ETH      O 4355   0.498   0.314   1.344  0.0881  0.1145  0.2371
 1171ETH      H 4356   0.240   0.092   1.320  1.4032 -0.6410  0.5484
 1171ETH     H1 4357   0.244   0.264   1.278 -1.3418 -0.9061 -0.5881
 1171ETH     H2 4358   0.256   0.212   1.450 -1.9591 -0.0452 -0.8211
 1171ETH     H3 4359   0.475   0.121   1.414 -1.9476 -0.6571 -0.1888
 1171ETH     H4 4360   0.454   0.148   1.230 -1.0176 -0.3144 -0.0161
 1171ETH     H5 4361   0.449   0.364   1.412 -0.1766 -2.2789  1.9066
 1172ETH      C 4362   0.336   1.773   1.682  0.6495  0.0312 -0.4306
 1172ETH     C1 4363   0.190   1.811   1.706  0.3138 -0.3158 -0.7790
 1172ETH      O 4364   0.142   1.905   1.612  0.0150  0.5028  0.9225
 1172ETH      H 4365   0.345   1.741   1.577  1.8834 -0.8469 -0.0736
 1172ETH     H1 4366   0.380   1.715   1.763 -0.5533 -1.0735 -0.5249
 1172ETH     H2 4367   0.392   1.866   1.686  0.0707  0.3997 -0.7421
 1172ETH     H3 4368   0.128   1.721   1.704  0.7045 -0.6317  0.2544
 1172ETH     H4 4369   0.191   1.869   1.800  0.0989  0.6363 -1.3484
 1172ETH     H5 4370   0.048   1.921   1.626 -0.1309  1.7477 -1.0812
 1173ETH      C 4371   2.335   2.009   1.536  0.2824  0.9859 -0.2971
 1173ETH     C1 4372   2.444   1.917   1.607 -0.0217 -1.0152  0.0602
 1173ETH      O 4373   2.480   1.980   1.732 -0.2497 -0.0728  0.4820
 1173ETH      H 4374   2.291   1.946   1.457  2.7444 -1.1250 -0.1034
 1173ETH     H1 4375   2.378   2.098   1.488 -1.8021  1.2023 -1.9189
 1173ETH     H2 4376   2.268   2.034   1.620  0.2600  1.0984 -0.3480
 1173ETH     H3 4377   2.410   1.814   1.617 -0.2619 -0.7811  2.0096
 1173ETH     H4 4378   2.533   1.910   1.543  0.8142 -1.8549  1.2747
 1173ETH     H5 4379   2.552   2.044   1.716 -0.4830  0.2891  0.8648
 1174ETH      C 4380   3.777   3.409   1.630  0.5465  0.5193 -0.3813
 1174ETH     C1 4381   3.767   3.331   1.761 -1.2682  0.1102 -0.0110
 1174ETH      O 4382   3.861   3.227   1.764  0.6014 -0.3980 -0.6546
 1174ETH      H 4383   3.775   3.340   1.545  0.8083 -0.8489  0.6693
 1174ETH     H1 4384   3.879   3.449   1.625  0.7510  0.0820  0.1222
 1174ETH     H2 4385   3.703   3.489   1.631  0.9433  0.9088  1.4098
 1174ETH     H3 4386   3.771   3.395   1.849  0.6756 -0.2319  0.1817
 1174ETH     H4 4387   3.664   3.295   1.765 -0.8280 -1.8129 -2.9722
 1174ETH     H5 4388   3.896   3.227   1.854  1.4700 -0.3694 -0.9741
 1175ETH      C 4389   0.953   0.896   2.258 -0.7787 -0.2426  0.2188
 1175ETH     C1 4390   0.911   0.806   2.137  0.3697  0.1523  0.5005
 1175ETH      O 4391   0.893   0.677   2.188 -0.5791  0.2023 -0.0213
 1175ETH      H 4392   0.873   0.945   2.316  0.6484  0.3148  1.7817
 1175ETH     H1 4393   1.015   0.981   2.225 -0.1249 -1.2970 -1.3996
 1175ETH     H2 4394   1.016   0.844   2.331 -0.0009  0.0460 -0.2354
 1175ETH     H3 4395   0.823   0.838   2.079  0.7525  0.2207 -0.0590
 1175ETH     H4 4396   0.992   0.789   2.065 -0.8511  1.4479 -1.2760
 1175ETH     H5 4397   0.983   0.651   2.216 -0.1855  2.3330  0.9033
 1176ETH      C 4398   2.623   2.633   1.169  0.1343 -0.0198 -0.4855
 1176ETH     C1 4399   2.628   2.481   1.140 -0.1691 -0.3294 -0.4621
 1176ETH      O 4400   2.510   2.436   1.083 -0.1304  0.3147 -0.1948
 1176ETH      H 4401   2.721   2.674   1.197  0.4546 -0.0426 -1.5233
 1176ETH     H1 4402   2.553   2.629   1.254  0.3390 -1.8219 -0.3586
 1176ETH     H2 4403   2.580   2.690   1.085 -0.3972 -1.6955 -1.3888
 1176ETH     H3 4404   2.711   2.463   1.071  0.2092  0.6109 -0.2605
 1176ETH     H4 4405   2.652   2.419   1.228  0.9749 -1.2159 -1.3497
 1176ETH     H5 4406   2.484   2.502   1.016 -0.9515  1.2273  0.9699
 1177ETH      C 4407   4.093   0.936   3.130 -0.3110  0.4853  0.3757
 1177ETH     C1 4408   4.116   0.834   3.016  0.2963  0.4144 -0.0190
 1177ETH      O 4409   4.001   0.814   2.932  0.4293 -0.0055  0.2318
 1177ETH      H 4410   4.083   1.035   3.083 -1.3746 -1.0211 -2.9079
 1177ETH     H1 4411   4.182   0.934   3.193  2.0241 -0.6544 -2.7251
 1177ETH     H2 4412   4.006   0.909   3.191 -0.5818  0.1147 -0.1600
 1177ETH     H3 4413   4.197   0.873   2.953 -1.1675  0.5681 -1.8758
 1177ETH     H4 4414   4.148   0.736   3.054 -1.1093 -0.5420 -1.2250
 1177ETH     H5 4415   3.924   0.836   2.988 -1.6401  1.6467 -2.9622
 1178ETH      C 4416   3.903   3.439   1.078 -1.0457 -0.0183  0.5644
 1178ETH     C1 4417   3.826   3.368   1.191 -0.0116  0.0331 -0.6403
 1178ETH      O 4418   3.839   3.231   1.177  0.1941  0.0235 -0.0842
 1178ETH      H 4419   3.894   3.393   0.979 -0.4498 -0.6183  0.7812
 1178ETH     H1 4420   4.009   3.424   1.103 -0.2748  2.7023 -0.7550
 1178ETH     H2 4421   3.897   3.548   1.074  1.8313  0.1979  0.2343
 1178ETH     H3 4422   3.868   3.417   1.280  1.3208  5.0719 -3.6325
 1178ETH     H4 4423   3.721   3.398   1.208 -0.5741 -1.8444 -0.6239
 1178ETH     H5 4424   3.872   3.210   1.088  0.3432  0.1405 -0.0576
 1179ETH      C 4425   3.353   0.239   1.366 -0.2715  0.6848 -0.2381
 1179ETH     C1 4426   3.402   0.363   1.300 -0.3085 -0.5167  0.7979
 1179ETH      O 4427   3.295   0.424   1.228  0.4021  0.0787 -0.3965
 1179ETH      H 4428   3.359   0.232   1.475 -0.1811  0.3134 -0.2669
 1179ETH     H1 4429   3.412   0.151   1.336  0.8259  1.2598  0.1859
 1179ETH     H2 4430   3.251   0.205   1.342  1.0464 -2.2571 -2.2446
 1179ETH     H3 4431   3.449   0.438   1.365 -1.4354  0.7293  0.2316
 1179ETH     H4 4432   3.481   0.336   1.228 -0.0159 -0.2515  1.0146
 1179ETH     H5 4433   3.261   0.366   1.157 -1.5189 -0.3379  0.7773
 1180ETH      C 4434   0.299   3.405   0.022 -0.4768 -0.1228 -0.3501
 1180ETH     C1 4435   0.279   3.551  -0.021  0.4806  0.1593  0.3115
 1180ETH      O 4436   0.380   3.589  -0.114  0.3569  0.4119  0.5357
 1180ETH      H 4437   0.400   3.361   0.026 -0.7582 -0.8256 -0.7614
 1180ETH     H1 4438   0.252   3.334  -0.046 -0.0051 -0.8277  0.0465
 1180ETH     H2 4439   0.248   3.402   0.118  1.1552 -0.8037  0.5444
 1180ETH     H3 4440   0.176   3.566  -0.057  0.0377 -0.7817  1.1428
 1180ETH     H4 4441   0.295   3.616   0.066 -1.8645  1.0903  0.1387
 1180ETH     H5 4442   0.456   3.532  -0.092  1.3499  1.7510  0.7415
 1181ETH      C 4443   1.061   3.566   3.945  0.1055 -0.5964 -0.1128
 1181ETH     C1 4444   1.123   3.423   3.951 -0.1119  0.0979  0.3719
 1181ETH      O 4445   1.109   3.350   3.831 -0.1742 -0.3419  0.6512
 1181ETH      H 4446   0.971   3.563   3.882 -0.0822  1.5348 -0.0139
 1181ETH     H1 4447   1.137   3.634   3.904  0.3203 -0.8385 -0.1160
 1181ETH     H2 4448   1.043   3.594   4.049  1.6643  1.5741 -0.3578
 1181ETH     H3 4449   1.228   3.439   3.978 -0.4306  0.1108  1.6407
 1181ETH     H4 4450   1.074   3.375   4.037  0.2948  2.3623  1.9605
 1181ETH     H5 4451   1.088   3.416   3.763 -1.1707 -1.0315  0.2746
 1182ETH      C 4452   3.469   1.815   2.716  0.0530  0.2294 -0.5027
 1182ETH     C1 4453   3.587   1.862   2.808 -0.0597  0.5618 -0.4630
 1182ETH      O 4454   3.534   1.951   2.903 -0.1672  0.7862  0.3629
 1182ETH      H 4455   3.406   1.749   2.777 -0.6083 -0.4792 -1.9080
 1182ETH     H1 4456   3.496   1.765   2.622  0.7159  3.6089 -2.2886
 1182ETH     H2 4457   3.404   1.902   2.697 -1.1600 -0.6266 -0.3967
 1182ETH     H3 4458   3.631   1.773   2.856 -1.0296 -0.4114 -1.3249
 1182ETH     H4 4459   3.660   1.906   2.739 -0.5370  1.6328 -0.2974
 1182ETH     H5 4460   3.511   2.035   2.860 -3.1042  1.1812  2.4228
 1183ETH      C 4461   4.158   0.867   1.015  0.4459 -0.2123  0.1883
 1183ETH     C1 4462   4.288   0.933   1.068  0.2455 -0.0340  0.1099
 1183ETH      O 4463   4.356   1.000   0.966  0.6486  0.2295  0.0753
 1183ETH      H 4464   4.174   0.800   0.929  0.1176  0.7118 -0.6113
 1183ETH     H1 4465   4.089   0.943   0.977 -0.5284 -1.7828 -1.3515
 1183ETH     H2 4466   4.102   0.805   1.086  0.2874 -0.2429  0.0395
 1183ETH     H3 4467   4.268   1.006   1.147  0.5553  3.0904 -2.4887
 1183ETH     H4 4468   4.355   0.855   1.106  1.8805  1.9164  1.4810
 1183ETH     H5 4469   4.286   1.040   0.912  0.4352 -0.8465 -0.4577
 1184ETH      C 4470   0.933   1.936   0.027 -0.6184 -0.6644 -0.3133
 1184ETH     C1 4471   0.957   2.089  -0.002  0.0423 -0.2278  1.0756
 1184ETH      O 4472   0.882   2.109  -0.128  0.3549  0.2877 -0.3819
 1184ETH      H 4473   0.828   1.915   0.050 -0.5010 -3.9579 -2.1813
 1184ETH     H1 4474   0.990   1.911   0.117 -2.4359  0.9107  1.3592
 1184ETH     H2 4475   0.973   1.876  -0.055  1.7499 -1.2390  1.1558
 1184ETH     H3 4476   0.914   2.160   0.070  0.3264  0.9039  0.1462
 1184ETH     H4 4477   1.064   2.108  -0.019  0.2694 -1.9752  0.2447
 1184ETH     H5 4478   0.809   2.046  -0.119  1.0133 -0.5504 -0.7361
 1185ETH      C 4479   1.892   0.867   0.215  0.6233 -0.0106 -0.0262
 1185ETH     C1 4480   1.993   0.881   0.330 -0.5911 -0.6977 -0.4978
 1185ETH      O 4481   2.000   1.016   0.379 -0.1411  0.1555 -0.0092
 1185ETH      H 4482   1.922   0.910   0.118  1.3991 -0.6583 -0.0851
 1185ETH     H1 4483   1.795   0.910   0.243 -0.4014  0.3359 -3.5317
 1185ETH     H2 4484   1.863   0.763   0.198 -0.9197  0.4304 -0.3068
 1185ETH     H3 4485   1.961   0.813   0.409  0.2336 -0.3781  0.1326
 1185ETH     H4 4486   2.096   0.859   0.298 -0.0372  0.9876  0.0065
 1185ETH     H5 4487   2.076   1.010   0.439  1.7844 -1.5515 -2.4102
 1186ETH      C 4488   1.628   1.560   1.296 -0.3602 -0.1934  0.8078
 1186ETH     C1 4489   1.640   1.436   1.392 -0.2342 -0.2088  0.0509
 1186ETH      O 4490   1.617   1.317   1.320  0.5745 -0.3040 -0.3924
 1186ETH      H 4491   1.631   1.655   1.351 -0.2747  0.1360  0.2478
 1186ETH     H1 4492   1.537   1.545   1.236  0.0728  0.2567  0.0118
 1186ETH     H2 4493   1.710   1.556   1.223  0.2732 -1.2747  1.5658
 1186ETH     H3 4494   1.744   1.432   1.426  0.5450  0.0756 -2.1328
 1186ETH     H4 4495   1.565   1.443   1.471  0.7806 -0.4494  1.0522
 1186ETH     H5 4496   1.525   1.314   1.287  0.0752 -2.7371  1.0136
 1187ETH      C 4497   0.175   3.757   3.761 -0.6493 -0.3307  0.2133
 1187ETH     C1 4498   0.290   3.679   3.834 -0.6167 -0.2588 -0.3789
 1187ETH      O 4499   0.418   3.738   3.802  0.6671 -0.1372  0.4524
 1187ETH      H 4500   0.086   3.699   3.789 -0.4347 -1.0909 -0.6424
 1187ETH     H1 4501   0.170   3.756   3.652 -0.6701  0.8612  0.1843
 1187ETH     H2 4502   0.158   3.862   3.789  0.0758 -0.2166  0.2455
 1187ETH     H3 4503   0.273   3.705   3.939 -1.3609  2.2096 -1.0295
 1187ETH     H4 4504   0.283   3.571   3.823  0.5527 -0.2906 -0.9900
 1187ETH     H5 4505   0.395   3.806   3.736  1.6705 -0.1509  0.0739
 1188ETH      C 4506   3.470   0.389   1.761 -0.0240  0.4459  0.1388
 1188ETH     C1 4507   3.329   0.364   1.805  0.3459  0.3873 -1.2333
 1188ETH      O 4508   3.287   0.470   1.895 -0.3898 -0.8590  0.0564
 1188ETH      H 4509   3.542   0.359   1.838 -0.4407 -1.2122 -0.0971
 1188ETH     H1 4510   3.483   0.494   1.731 -0.3270  0.0275 -1.5343
 1188ETH     H2 4511   3.477   0.314   1.682 -0.1103 -0.7978  1.2785
 1188ETH     H3 4512   3.269   0.354   1.713  0.7389 -0.7041 -1.3843
 1188ETH     H4 4513   3.322   0.269   1.859 -1.3983  1.1188 -0.0870
 1188ETH     H5 4514   3.355   0.467   1.965  0.7375 -0.8531 -1.0158
 1189ETH      C 4515   3.337   3.463   1.606  0.6347  0.0667 -0.3265
 1189ETH     C1 4516   3.403   3.543   1.724 -0.7225  0.0473  1.0008
 1189ETH      O 4517   3.310   3.576   1.827  0.0543 -0.3283 -0.4643
 1189ETH      H 4518   3.267   3.385   1.636  2.0158 -1.5079 -1.0456
 1189ETH     H1 4519   3.414   3.411   1.548  0.3352 -1.8941  0.9509
 1189ETH     H2 4520   3.286   3.529   1.535 -0.7227 -0.7001 -0.0931
 1189ETH     H3 4521   3.488   3.501   1.780 -0.4211  2.2626  2.2879
 1189ETH     H4 4522   3.440   3.633   1.674 -1.1256 -1.0074 -1.3453
 1189ETH     H5 4523   3.264   3.492   1.845  2.5486 -2.3573 -2.6443
 1190ETH      C 4524   0.609   2.776   3.921  0.2721  0.2262  0.5724
 1190ETH     C1 4525   0.484   2.760   3.822  0.1161  0.8208 -0.0801
 1190ETH      O 4526   0.372   2.821   3.872  0.6091 -0.0321  0.2021
 1190ETH      H 4527   0.630   2.684   3.977 -2.1140 -0.0871  1.0488
 1190ETH     H1 4528   0.582   2.851   3.997 -0.5239  3.6353 -2.7947
 1190ETH     H2 4529   0.698   2.821   3.876  1.2433 -1.0479  1.1283
 1190ETH     H3 4530   0.500   2.802   3.722  0.4289  1.1455  0.1052
 1190ETH     H4 4531   0.464   2.654   3.806 -1.1726  0.8280  1.3425
 1190ETH     H5 4532   0.397   2.895   3.929 -0.8221 -1.4848  2.9064
 1191ETH      C 4533   3.679   1.270   0.601 -0.1441  0.1397 -0.2837
 1191ETH     C1 4534   3.754   1.399   0.628  0.0622  0.1388 -0.4101
 1191ETH      O 4535   3.679   1.500   0.688  0.2501  0.0712 -0.7026
 1191ETH      H 4536   3.598   1.295   0.531  0.7861 -0.8117 -1.7664
 1191ETH     H1 4537   3.645   1.222   0.694  0.9696 -0.1986 -0.0360
 1191ETH     H2 4538   3.740   1.193   0.552 -1.1439 -1.0029  0.2142
 1191ETH     H3 4539   3.847   1.380   0.684  1.8224  1.1932 -2.7628
 1191ETH     H4 4540   3.789   1.444   0.534  0.4858  1.5584  0.4035
 1191ETH     H5 4541   3.627   1.458   0.759  0.4311  0.2945 -0.4380
 1192ETH      C 4542   4.175   1.568   1.957  0.2853  0.1973  0.8362
 1192ETH     C1 4543   4.072   1.456   1.965 -0.6318  0.0891  0.2545
 1192ETH      O 4544   3.999   1.458   1.841 -0.4284 -0.5221 -0.3680
 1192ETH      H 4545   4.238   1.563   2.047 -1.0946 -0.0467  1.8184
 1192ETH     H1 4546   4.128   1.667   1.958 -0.7991 -0.3118  1.3230
 1192ETH     H2 4547   4.241   1.554   1.870  0.5154  1.7616  0.7274
 1192ETH     H3 4548   4.124   1.361   1.983  0.9326  0.7031 -0.8578
 1192ETH     H4 4549   4.006   1.483   2.049  0.4040  2.3123  0.4134
 1192ETH     H5 4550   4.051   1.409   1.774  0.9872  0.1085  0.2169
 1193ETH      C 4551   1.874   0.323   3.241 -0.3909 -0.2276  0.2782
 1193ETH     C1 4552   1.987   0.421   3.247  0.3927  0.1173 -0.2346
 1193ETH      O 4553   2.113   0.353   3.235  0.9043 -0.4088 -1.4968
 1193ETH      H 4554   1.831   0.313   3.341 -0.5105 -1.4276  0.1206
 1193ETH     H1 4555   1.913   0.227   3.205  0.7056  1.3665 -3.3375
 1193ETH     H2 4556   1.801   0.356   3.166  1.5066  3.8170 -0.0611
 1193ETH     H3 4557   1.969   0.490   3.164 -1.5140 -1.1459 -0.9409
 1193ETH     H4 4558   1.981   0.472   3.344  0.1060  0.5202 -0.4643
 1193ETH     H5 4559   2.118   0.279   3.298 -2.2471  1.2873  1.0928
 1194ETH      C 4560   0.018   0.160   3.406  0.0939 -0.3425  0.3608
 1194ETH     C1 4561   0.128   0.147   3.295 -0.4521 -0.4171  0.1183
 1194ETH      O 4562   0.250   0.089   3.357 -0.1339 -0.1652  0.0564
 1194ETH      H 4563   0.041   0.242   3.475 -2.2144 -1.0827  2.1698
 1194ETH     H1 4564   0.001   0.070   3.467 -1.6555  0.6348  1.3982
 1194ETH     H2 4565  -0.079   0.190   3.365  0.3695  1.0315  0.6908
 1194ETH     H3 4566   0.093   0.088   3.209 -0.0048  0.3762 -0.6340
 1194ETH     H4 4567   0.144   0.246   3.250 -1.2594  0.3930  1.5529
 1194ETH     H5 4568   0.301   0.165   3.390 -1.3875  1.3265 -1.2411
 1195ETH      C 4569   1.506   0.970   2.478  0.6727 -0.9134  0.2409
 1195ETH     C1 4570   1.489   0.815   2.492  0.3186  0.2544  0.6252
 1195ETH      O 4571   1.502   0.755   2.368 -0.1070 -0.1410 -0.0425
 1195ETH      H 4572   1.406   1.013   2.463  0.5253 -1.0310  0.8431
 1195ETH     H1 4573   1.571   1.005   2.398  0.3111  1.6908  0.9771
 1195ETH     H2 4574   1.532   1.027   2.568  0.7818 -0.2825 -0.1835
 1195ETH     H3 4575   1.544   0.759   2.569 -0.3026  0.4231  1.2056
 1195ETH     H4 4576   1.382   0.797   2.511 -0.2052 -0.1311 -2.2921
 1195ETH     H5 4577   1.583   0.793   2.328 -0.3050  0.0868 -0.2319
 1196ETH      C 4578   2.151   1.052   3.027  0.1446  0.0000 -0.2555
 1196ETH     C1 4579   2.089   1.181   2.973  0.4381 -0.4713 -0.1869
 1196ETH      O 4580   2.188   1.254   2.900 -0.4253  0.3808 -0.4408
 1196ETH      H 4581   2.074   0.983   3.064  0.5848  0.3555  1.4467
 1196ETH     H1 4582   2.210   1.070   3.118 -0.3217  0.0163  0.0501
 1196ETH     H2 4583   2.205   0.998   2.948 -0.9580 -1.9254  0.2246
 1196ETH     H3 4584   2.003   1.156   2.909  1.2435  0.0128 -1.5016
 1196ETH     H4 4585   2.052   1.236   3.060 -0.7702 -0.4328 -0.7047
 1196ETH     H5 4586   2.142   1.319   2.844 -1.3667 -0.6902 -0.9631
 1197ETH      C 4587   4.043   0.235   4.195 -0.3443 -0.4219 -0.6745
 1197ETH     C1 4588   3.945   0.340   4.146 -0.0522  0.4577  0.2027
 1197ETH      O 4589   4.002   0.413   4.033 -0.4524  0.0688  0.5470
 1197ETH      H 4590   4.114   0.282   4.264 -1.0893  1.3153 -1.0544
 1197ETH     H1 4591   4.094   0.184   4.112 -0.2108 -2.6259  0.6706
 1197ETH     H2 4592   3.988   0.156   4.248 -0.3569 -0.2804 -0.4771
 1197ETH     H3 4593   3.861   0.281   4.109 -1.2389  1.0085  1.9291
 1197ETH     H4 4594   3.908   0.412   4.219  0.2032  0.7200  0.0794
 1197ETH     H5 4595   4.006   0.345   3.964 -0.3466 -0.6298  1.2319
 1198ETH      C 4596   0.453   1.062   1.398  0.6194 -0.2740 -0.0485
 1198ETH     C1 4597   0.511   1.026   1.530  0.5399 -0.2545 -0.5516
 1198ETH      O 4598   0.595   1.135   1.571  0.6745 -0.7013  0.0349
 1198ETH      H 4599   0.397   1.156   1.407 -0.2225 -0.6145 -1.4302
 1198ETH     H1 4600   0.394   0.979   1.359 -0.3557  0.4984 -0.2478
 1198ETH     H2 4601   0.545   1.085   1.343  1.4456 -1.4673  0.7621
 1198ETH     H3 4602   0.433   0.997   1.601  1.0588  1.2948  0.6984
 1198ETH     H4 4603   0.568   0.932   1.530 -0.8014 -1.1214  0.5708
 1198ETH     H5 4604   0.619   1.128   1.665  0.5747  1.0021  0.2241
 1199ETH      C 4605   1.977   1.546   1.791 -0.2243 -0.0301 -0.3082
 1199ETH     C1 4606   1.995   1.531   1.637  1.1623 -0.0394  0.3680
 1199ETH      O 4607   1.875   1.573   1.571  0.7377  0.0888 -0.4215
 1199ETH      H 4608   2.067   1.505   1.838  0.6445  0.1984 -1.7159
 1199ETH     H1 4609   1.880   1.511   1.828 -1.1503  1.8383 -0.8771
 1199ETH     H2 4610   1.982   1.652   1.816 -1.4813 -0.3199  1.3600
 1199ETH     H3 4611   2.078   1.593   1.603  0.8322 -0.1267 -0.6161
 1199ETH     H4 4612   2.016   1.427   1.608 -1.7789 -0.2298 -1.5287
 1199ETH     H5 4613   1.865   1.669   1.579  0.1778 -0.1063  2.0138
 1200ETH      C 4614   0.780   1.998   3.811 -0.1054 -0.2656 -0.4545
 1200ETH     C1 4615   0.659   1.941   3.899  0.0744 -0.0089 -0.2170
 1200ETH      O 4616   0.709   1.900   4.019  0.6449 -0.1744  0.7768
 1200ETH      H 4617   0.811   2.094   3.854  0.0660  0.2777 -1.7583
 1200ETH     H1 4618   0.758   2.022   3.706  2.4299  1.8183 -0.6016
 1200ETH     H2 4619   0.855   1.919   3.802 -1.2290 -1.5959  1.2108
 1200ETH     H3 4620   0.581   2.018   3.904 -0.5233 -0.4049 -2.2326
 1200ETH     H4 4621   0.626   1.853   3.842  0.0468  1.1469 -2.0840
 1200ETH     H5 4622   0.633   1.861   4.066 -1.7458  2.7392 -0.4213
 1201ETH      C 4623   0.700   4.013   1.065 -0.0885 -0.0017  0.0360
 1201ETH     C1 4624   0.554   4.061   1.091 -0.3326 -0.5460  0.5606
 1201ETH      O 4625   0.551   4.171   1.183  0.3382 -0.3901  0.3780
 1201ETH      H 4626   0.757   4.075   0.995 -0.2209  0.3384  0.2292
 1201ETH     H1 4627   0.680   3.917   1.016 -1.8513  0.3227  0.0357
 1201ETH     H2 4628   0.740   3.996   1.165  0.4970 -1.6004 -0.4264
 1201ETH     H3 4629   0.497   4.078   0.998 -0.1096 -1.7604  0.1896
 1201ETH     H4 4630   0.491   3.986   1.140  2.1633 -3.2807 -0.1466
 1201ETH     H5 4631   0.618   4.233   1.149 -1.0948  0.3293 -1.3049
 1202ETH      C 4632   3.384   0.423   0.288 -0.3088 -0.6111  0.0374
 1202ETH     C1 4633   3.286   0.540   0.262  0.1318  0.7776 -0.4201
 1202ETH      O 4634   3.276   0.628   0.372  0.1867 -0.0865 -0.2106
 1202ETH      H 4635   3.345   0.351   0.361 -1.2112  1.7473  2.0368
 1202ETH     H1 4636   3.479   0.458   0.330  0.1020 -0.5309 -0.9333
 1202ETH     H2 4637   3.415   0.374   0.196 -0.7753 -0.5432 -0.1604
 1202ETH     H3 4638   3.310   0.596   0.171 -2.6827  2.0294 -0.4964
 1202ETH     H4 4639   3.183   0.507   0.243 -0.3298  0.9267  1.5692
 1202ETH     H5 4640   3.270   0.569   0.449 -2.1182 -1.4692 -1.3593
 1203ETH      C 4641   0.770   0.189   3.049  0.5077  0.0453  0.7899
 1203ETH     C1 4642   0.743   0.085   3.151 -0.0677 -0.1286  0.3126
 1203ETH      O 4643   0.837   0.103   3.256  0.1798  0.7243 -0.3389
 1203ETH      H 4644   0.707   0.188   2.959  0.6049 -0.3074  0.7262
 1203ETH     H1 4645   0.872   0.173   3.013  1.1423  2.1858  1.4639
 1203ETH     H2 4646   0.785   0.290   3.088  3.4812 -0.0712  0.1979
 1203ETH     H3 4647   0.643   0.097   3.195  0.5297 -1.2639  2.0806
 1203ETH     H4 4648   0.769  -0.012   3.107  1.9970  0.8175 -0.6999
 1203ETH     H5 4649   0.832   0.191   3.297 -0.9093  0.0211  1.1394
 1204ETH      C 4650   2.081   0.043   0.450 -0.1139  0.1862  0.2955
 1204ETH     C1 4651   2.071   0.182   0.506  0.3189 -0.0167 -0.2170
 1204ETH      O 4652   1.938   0.215   0.538 -0.1240 -0.4077 -0.5033
 1204ETH      H 4653   2.027   0.020   0.358  1.4236 -0.8738 -0.3785
 1204ETH     H1 4654   2.050  -0.035   0.521 -1.7274 -0.3625 -0.9464
 1204ETH     H2 4655   2.181   0.011   0.421 -0.1097 -0.8706  1.3531
 1204ETH     H3 4656   2.138   0.196   0.592  0.0267 -2.1395  0.4235
 1204ETH     H4 4657   2.104   0.256   0.432 -0.0962  1.6227  1.1617
 1204ETH     H5 4658   1.882   0.196   0.460 -1.4777 -1.2154  0.6260
 1205ETH      C 4659   0.115   3.245   3.924 -0.2710  0.2436  0.1763
 1205ETH     C1 4660   0.162   3.147   3.829  0.1830 -0.5451  0.1117
 1205ETH      O 4661   0.295   3.186   3.798 -0.5277 -1.2392 -0.1460
 1205ETH      H 4662   0.177   3.244   4.015  1.7405 -0.7580 -1.1310
 1205ETH     H1 4663   0.008   3.226   3.937 -0.6459  1.1309 -1.2908
 1205ETH     H2 4664   0.133   3.347   3.886  0.4779 -0.5764 -1.7827
 1205ETH     H3 4665   0.161   3.045   3.867 -0.2999 -0.6448 -0.1697
 1205ETH     H4 4666   0.112   3.149   3.732  1.4558 -0.5784 -0.5746
 1205ETH     H5 4667   0.330   3.151   3.714  2.1489  1.8916 -0.5219
 1206ETH      C 4668   2.245   0.213   0.978 -0.0309  0.1274 -0.0759
 1206ETH     C1 4669   2.276   0.260   1.112  0.0140  0.2640  0.2036
 1206ETH      O 4670   2.263   0.400   1.103 -0.2359  0.1506 -0.1302
 1206ETH      H 4671   2.285   0.271   0.894 -0.2095 -0.7619 -0.7828
 1206ETH     H1 4672   2.136   0.216   0.977 -0.1195 -1.8814 -0.1450
 1206ETH     H2 4673   2.287   0.112   0.981  0.7258  0.4139 -0.5804
 1206ETH     H3 4674   2.206   0.212   1.181  1.4723 -1.2194  0.7317
 1206ETH     H4 4675   2.382   0.237   1.133  0.3243  1.7594  0.3779
 1206ETH     H5 4676   2.179   0.423   1.059 -2.1629 -4.0144  0.8953
 1207ETH      C 4677   1.303   0.480   2.404 -0.0091  0.1130  0.2827
 1207ETH     C1 4678   1.216   0.576   2.325 -0.2982  0.2298 -0.3425
 1207ETH      O 4679   1.094   0.516   2.284 -0.6433 -0.2800  0.1095
 1207ETH      H 4680   1.390   0.535   2.439 -0.1524  0.9163 -0.5883
 1207ETH     H1 4681   1.331   0.390   2.348  0.8618  0.1696  0.6203
 1207ETH     H2 4682   1.244   0.438   2.486 -1.4968  0.3046 -0.6412
 1207ETH     H3 4683   1.193   0.658   2.394 -1.4667 -2.4156  2.6605
 1207ETH     H4 4684   1.266   0.610   2.234  2.9266 -0.0130  1.2140
 1207ETH     H5 4685   1.073   0.455   2.357  0.5013  0.8337  1.4367
 1208ETH      C 4686   2.876   0.106   0.234  0.0235  0.1731  0.7503
 1208ETH     C1 4687   2.925   0.186   0.358 -0.8009  0.4699  1.0408
 1208ETH      O 4688   3.065   0.176   0.367  0.2600  0.1519  0.2866
 1208ETH      H 4689   2.870  -0.002   0.256 -0.2469 -0.2034 -1.0087
 1208ETH     H1 4690   2.946   0.102   0.150 -1.7170 -1.7833 -0.7205
 1208ETH     H2 4691   2.774   0.135   0.204 -0.1529 -1.4129 -0.3621
 1208ETH     H3 4692   2.894   0.290   0.343  1.8849  1.3295  0.9257
 1208ETH     H4 4693   2.883   0.153   0.454 -0.4562  0.0526  1.0522
 1208ETH     H5 4694   3.092   0.083   0.361  0.9018  0.2951  0.8549
 1209ETH      C 4695   1.783   0.879   4.091 -0.1060  0.3242 -0.2584
 1209ETH     C1 4696   1.655   0.899   3.998  0.1823  0.1031 -0.6702
 1209ETH      O 4697   1.603   0.771   3.948  0.4620 -0.5470  0.1050
 1209ETH      H 4698   1.761   0.813   4.176 -0.1789  2.5488  1.5543
 1209ETH     H1 4699   1.817   0.977   4.126 -2.7456  1.5611 -0.8688
 1209ETH     H2 4700   1.870   0.839   4.038 -0.1941  0.1561 -0.2777
 1209ETH     H3 4701   1.584   0.956   4.059 -0.2308 -0.2864 -0.7871
 1209ETH     H4 4702   1.687   0.963   3.915  1.6416 -1.3316 -1.2712
 1209ETH     H5 4703   1.649   0.701   3.997 -1.1421 -0.4992  1.7713
 1210ETH      C 4704   2.088   0.922   3.790 -0.6041 -0.0809 -0.2507
 1210ETH     C1 4705   2.081   1.070   3.811 -0.1132 -0.3862  0.1693
 1210ETH      O 4706   2.032   1.103   3.935 -0.4421  0.6719  0.0584
 1210ETH      H 4707   1.990   0.874   3.793 -0.5293 -0.5016 -2.7073
 1210ETH     H1 4708   2.166   0.881   3.856 -0.5935  0.4170  0.0515
 1210ETH     H2 4709   2.115   0.909   3.685 -1.7268 -3.1898 -0.2716
 1210ETH     H3 4710   2.185   1.104   3.803  0.1741 -0.9550  1.2756
 1210ETH     H4 4711   2.027   1.119   3.729 -0.6519 -1.2373 -0.0005
 1210ETH     H5 4712   1.936   1.095   3.924 -0.4105  1.5080 -0.9607
 1211ETH      C 4713   2.532   2.098   3.469  0.4949  0.1280  0.4607
 1211ETH     C1 4714   2.552   1.959   3.532  0.0486  0.5985 -0.0100
 1211ETH      O 4715   2.661   1.958   3.626  1.0045 -0.9072 -0.4084
 1211ETH      H 4716   2.556   2.170   3.549 -1.8041  0.6125  0.7937
 1211ETH     H1 4717   2.430   2.097   3.429  0.9424 -0.6338 -0.7042
 1211ETH     H2 4718   2.596   2.096   3.381 -2.6412 -1.0737 -2.0009
 1211ETH     H3 4719   2.466   1.924   3.590  0.8064  2.0948  2.1687
 1211ETH     H4 4720   2.564   1.888   3.450  0.9710  1.5407 -0.7218
 1211ETH     H5 4721   2.652   1.877   3.678  0.9893  0.0074  1.0673
 1212ETH      C 4722   3.290   1.316   1.950 -0.6370 -0.1493 -0.2118
 1212ETH     C1 4723   3.222   1.257   2.074  0.5377 -0.4857 -0.0540
 1212ETH      O 4724   3.312   1.248   2.179  0.6690  0.2236 -0.1957
 1212ETH      H 4725   3.214   1.316   1.871 -1.6887 -1.3730  0.7469
 1212ETH     H1 4726   3.388   1.270   1.929 -0.7911 -0.7996  0.4507
 1212ETH     H2 4727   3.316   1.419   1.976  1.8333 -1.6989  4.7339
 1212ETH     H3 4728   3.137   1.322   2.100  0.6486 -0.0946 -0.6477
 1212ETH     H4 4729   3.198   1.155   2.039  1.8313 -0.6628 -0.4822
 1212ETH     H5 4730   3.401   1.221   2.149  0.0040 -1.1317 -1.0217
 1213ETH      C 4731   1.346   2.474   3.967 -0.0371 -0.3010  0.5477
 1213ETH     C1 4732   1.377   2.623   3.969 -0.4805 -0.4294 -0.1505
 1213ETH      O 4733   1.277   2.714   4.024 -0.3311  0.0158  0.1453
 1213ETH      H 4734   1.432   2.418   3.928  1.0887  1.2176  0.7666
 1213ETH     H1 4735   1.260   2.458   3.900 -0.6164  1.5712  0.7832
 1213ETH     H2 4736   1.308   2.442   4.065  0.4163  0.1847  0.8855
 1213ETH     H3 4737   1.471   2.638   4.025  0.3280 -0.3316 -1.4810
 1213ETH     H4 4738   1.400   2.658   3.868  1.4718  0.5324  0.5591
 1213ETH     H5 4739   1.203   2.727   3.963 -0.7004  2.2613  0.9733
 1214ETH      C 4740   2.684   2.795   4.075 -0.7284 -0.3500 -0.4966
 1214ETH     C1 4741   2.766   2.669   4.064 -0.0318 -0.2568  0.2623
 1214ETH      O 4742   2.775   2.629   3.930 -0.0713  0.0109  0.5631
 1214ETH      H 4743   2.577   2.786   4.054 -1.1316 -0.6765  1.4589
 1214ETH     H1 4744   2.700   2.880   4.008 -0.7241  1.1342  1.3044
 1214ETH     H2 4745   2.682   2.828   4.180 -1.3006  3.2387 -1.5270
 1214ETH     H3 4746   2.865   2.704   4.098  0.3175 -0.6709 -0.2970
 1214ETH     H4 4747   2.731   2.583   4.122  1.9143 -1.7520 -0.6222
 1214ETH     H5 4748   2.690   2.651   3.890  0.1575 -0.1856 -0.0368
 1215ETH      C 4749   2.719   2.288   2.594  0.7621 -0.4671  0.5829
 1215ETH     C1 4750   2.633   2.159   2.623 -0.6644 -0.2379  0.3543
 1215ETH      O 4751   2.738   2.057   2.634 -0.7913  0.4305 -0.5774
 1215ETH      H 4752   2.799   2.307   2.667  0.4117 -0.3078  0.9308
 1215ETH     H1 4753   2.655   2.377   2.585 -0.1521 -0.8021  2.9501
 1215ETH     H2 4754   2.777   2.273   2.503  0.3242 -0.8824  0.3693
 1215ETH     H3 4755   2.576   2.163   2.717  0.6949  1.5388  1.1629
 1215ETH     H4 4756   2.567   2.142   2.536  1.2752 -3.6253 -0.6014
 1215ETH     H5 4757   2.780   2.061   2.722  0.5162  0.3572 -1.1734
 1216ETH      C 4758   1.970   2.934   0.941  0.6392 -0.6821  0.3403
 1216ETH     C1 4759   1.965   2.828   1.052  0.5825  0.0413  0.4822
 1216ETH      O 4760   1.831   2.795   1.077 -0.1019  0.1564 -0.2218
 1216ETH      H 4761   1.954   2.881   0.846 -1.7838 -2.2955  1.5582
 1216ETH     H1 4762   2.072   2.972   0.927  0.8392 -1.3152  0.0368
 1216ETH     H2 4763   1.905   3.020   0.960 -0.0312 -0.5487 -2.1331
 1216ETH     H3 4764   2.028   2.741   1.031 -0.1716 -0.5360  0.5517
 1216ETH     H4 4765   2.003   2.873   1.145  1.2938  1.0693 -0.2881
 1216ETH     H5 4766   1.795   2.773   0.989  0.4273 -1.0196 -0.1656
 1217ETH      C 4767   1.661   0.346   2.841 -0.8208 -0.2647 -0.4656
 1217ETH     C1 4768   1.618   0.466   2.744 -0.2943 -0.1199  0.1605
 1217ETH      O 4769   1.599   0.585   2.816  0.3257  0.4652 -0.1592
 1217ETH      H 4770   1.686   0.258   2.782 -0.4115 -1.6977  1.7227
 1217ETH     H1 4771   1.583   0.312   2.910  1.7121  0.3112  2.9471
 1217ETH     H2 4772   1.744   0.376   2.906 -1.5580  0.9146 -0.0360
 1217ETH     H3 4773   1.694   0.482   2.666  0.4247 -1.8826  0.4490
 1217ETH     H4 4774   1.526   0.431   2.696 -0.6539 -0.1816  0.8904
 1217ETH     H5 4775   1.504   0.594   2.835  0.2853  0.0932 -0.1777
 1218ETH      C 4776   3.694   1.184   1.808 -0.2280 -0.4507 -0.2541
 1218ETH     C1 4777   3.735   1.241   1.674 -0.3445  0.6953  0.2181
 1218ETH      O 4778   3.636   1.332   1.620  0.2615  0.2180 -0.1398
 1218ETH      H 4779   3.595   1.140   1.792 -1.4558  3.2244 -6.0444
 1218ETH     H1 4780   3.682   1.275   1.869 -0.3652  0.1018 -1.0881
 1218ETH     H2 4781   3.773   1.121   1.850  0.1985  0.8004  0.9170
 1218ETH     H3 4782   3.827   1.301   1.674 -2.3317  4.0801 -1.9740
 1218ETH     H4 4783   3.744   1.166   1.595 -1.3627  2.8076 -2.0113
 1218ETH     H5 4784   3.641   1.416   1.669  1.2499  0.6968 -1.0350
 1219ETH      C 4785   1.453   0.319   3.964 -0.6803  0.5506  0.9646
 1219ETH     C1 4786   1.380   0.208   3.895  0.3705  0.0410 -0.0791
 1219ETH      O 4787   1.271   0.173   3.979  0.2581 -0.5153 -0.0072
 1219ETH      H 4788   1.491   0.292   4.064  0.1996  2.0785  1.0813
 1219ETH     H1 4789   1.397   0.413   3.975 -1.2662  0.2290  0.7784
 1219ETH     H2 4790   1.541   0.343   3.904 -1.7949 -0.2820 -1.0809
 1219ETH     H3 4791   1.348   0.247   3.797  2.3944 -0.7346 -1.1063
 1219ETH     H4 4792   1.441   0.119   3.874 -0.9812 -0.5461 -1.8186
 1219ETH     H5 4793   1.222   0.097   3.943  0.5377  0.1759 -1.9955
 1220ETH      C 4794   1.346   1.225   2.863  1.0391  0.1017 -0.1945
 1220ETH     C1 4795   1.281   1.335   2.787  0.4705 -0.0580 -0.3045
 1220ETH      O 4796   1.290   1.459   2.867 -0.4514  0.8520 -0.0755
 1220ETH      H 4797   1.443   1.265   2.895  0.8266 -0.9220  1.9393
 1220ETH     H1 4798   1.357   1.137   2.798  2.8535  0.3279 -0.2464
 1220ETH     H2 4799   1.292   1.185   2.950  0.4908  0.3376 -0.4157
 1220ETH     H3 4800   1.340   1.337   2.694 -2.6070 -0.1099 -2.4092
 1220ETH     H4 4801   1.178   1.315   2.756  0.1416  0.2019  0.5971
 1220ETH     H5 4802   1.382   1.453   2.898 -0.3558 -1.2475 -0.6767
 1221ETH      C 4803   0.413   2.772   2.028 -0.3894 -0.3251 -0.4833
 1221ETH     C1 4804   0.377   2.689   1.910 -0.0675  0.5837  0.2126
 1221ETH      O 4805   0.353   2.557   1.948 -0.0889 -0.2368 -0.2822
 1221ETH      H 4806   0.343   2.769   2.112 -0.6298 -0.3251 -0.6803
 1221ETH     H1 4807   0.425   2.878   2.002  2.9158 -0.4338  0.1890
 1221ETH     H2 4808   0.514   2.741   2.055 -0.7679 -1.8117 -0.6784
 1221ETH     H3 4809   0.287   2.728   1.861 -1.3838 -1.4500  0.8849
 1221ETH     H4 4810   0.459   2.692   1.838 -0.7115  1.3412 -0.5072
 1221ETH     H5 4811   0.341   2.504   1.866 -0.0223  0.2507 -0.6111
 1222ETH      C 4812   2.235   2.189   2.711  0.5221 -1.2056 -0.3245
 1222ETH     C1 4813   2.268   2.046   2.667 -0.1045 -0.8547 -0.0801
 1222ETH      O 4814   2.168   1.961   2.732  0.5155 -0.6121  0.2089
 1222ETH      H 4815   2.310   2.254   2.663 -0.4703  1.3991  1.4041
 1222ETH     H1 4816   2.254   2.198   2.818  0.9546 -0.4702 -0.4481
 1222ETH     H2 4817   2.133   2.221   2.689  0.5905 -0.3513  0.5165
 1222ETH     H3 4818   2.250   2.031   2.560 -1.2901  1.1037 -0.2084
 1222ETH     H4 4819   2.368   2.015   2.697  0.0754  1.2989  1.7696
 1222ETH     H5 4820   2.170   1.874   2.688  1.1930 -0.2125 -0.5875
 1223ETH      C 4821   1.881   0.355   3.997 -0.1056  0.4762 -0.2915
 1223ETH     C1 4822   1.834   0.504   4.026  0.0039  0.3830 -0.4095
 1223ETH      O 4823   1.719   0.500   4.107  0.1317 -0.0202 -0.4147
 1223ETH      H 4824   1.866   0.286   4.081 -0.2188  0.7801 -0.0630
 1223ETH     H1 4825   1.989   0.354   3.979  0.1619  1.6211  1.0579
 1223ETH     H2 4826   1.820   0.302   3.922 -1.3849  1.8370 -0.2510
 1223ETH     H3 4827   1.915   0.563   4.070  0.7966 -0.5402 -0.6030
 1223ETH     H4 4828   1.820   0.545   3.925  0.5256  1.5437 -0.0259
 1223ETH     H5 4829   1.690   0.407   4.116  0.8512 -0.1528  0.6812
 1224ETH      C 4830   2.383   2.868   2.863  0.0610 -0.3303 -0.7399
 1224ETH     C1 4831   2.297   2.895   2.747  0.2350 -0.8811  0.7797
 1224ETH      O 4832   2.180   2.975   2.782 -0.1099  0.0175 -1.1927
 1224ETH      H 4833   2.417   2.956   2.919  2.9282 -2.8112  1.7714
 1224ETH     H1 4834   2.478   2.822   2.832  1.0513  1.6196 -0.7548
 1224ETH     H2 4835   2.332   2.814   2.943  1.2905 -0.3559  0.0545
 1224ETH     H3 4836   2.351   2.949   2.669 -0.8289 -0.5355  0.2530
 1224ETH     H4 4837   2.268   2.796   2.709 -1.4157 -1.1634  2.5785
 1224ETH     H5 4838   2.154   3.020   2.700  0.5180  1.5354 -0.5822
 1225ETH      C 4839   2.487   1.489   1.627  0.1206  0.7308 -0.4688
 1225ETH     C1 4840   2.501   1.346   1.571  0.1674  0.1694 -0.0387
 1225ETH      O 4841   2.584   1.343   1.451  0.3258 -0.7750 -0.2620
 1225ETH      H 4842   2.455   1.555   1.546 -0.1827  1.4720  0.2405
 1225ETH     H1 4843   2.584   1.533   1.655  0.2010 -0.0462  0.5553
 1225ETH     H2 4844   2.420   1.474   1.713  0.5343 -2.7640 -0.6119
 1225ETH     H3 4845   2.540   1.271   1.641 -1.6629 -0.8300 -0.0440
 1225ETH     H4 4846   2.401   1.310   1.545 -0.4645  2.1404 -0.4678
 1225ETH     H5 4847   2.526   1.384   1.384 -0.2512 -1.8876 -0.4606
 1226ETH      C 4848   2.116   1.444   3.834 -0.0445  0.3019  0.1139
 1226ETH     C1 4849   2.055   1.441   3.978  0.5317  0.0049  0.0976
 1226ETH      O 4850   2.122   1.344   4.059 -0.1592  0.7172 -0.1738
 1226ETH      H 4851   2.091   1.350   3.785 -0.6568  0.1765  0.6450
 1226ETH     H1 4852   2.223   1.465   3.839  0.0551  0.2026 -1.2047
 1226ETH     H2 4853   2.078   1.527   3.773 -0.0972  1.6238  1.8777
 1226ETH     H3 4854   2.064   1.540   4.023 -0.8378 -0.6216  1.8926
 1226ETH     H4 4855   1.946   1.424   3.971  0.5308 -0.0942  0.3207
 1226ETH     H5 4856   2.102   1.256   4.024 -0.4985 -0.5286  2.8644
 1227ETH      C 4857   0.302   1.808   3.129 -0.2617 -0.6242  0.3975
 1227ETH     C1 4858   0.431   1.890   3.116  0.9027  1.1238 -0.3980
 1227ETH      O 4859   0.416   2.020   3.177  0.1845  0.4030  0.0880
 1227ETH      H 4860   0.280   1.793   3.235 -0.5216  3.8250  1.1782
 1227ETH     H1 4861   0.312   1.709   3.083 -1.9521 -0.8525  0.4579
 1227ETH     H2 4862   0.218   1.864   3.084  1.1498  2.4890  1.3416
 1227ETH     H3 4863   0.510   1.832   3.167 -0.0372 -0.5316 -0.7614
 1227ETH     H4 4864   0.464   1.909   3.013 -1.2253  0.2368 -1.2977
 1227ETH     H5 4865   0.381   2.076   3.105  0.5974  0.6527  0.0820
 1228ETH      C 4866   4.163   3.043   3.277  0.1479 -0.9419  0.2460
 1228ETH     C1 4867   4.036   3.086   3.350 -0.4497  0.7123 -0.0436
 1228ETH      O 4868   3.964   3.165   3.264 -0.1591 -0.3777  0.3624
 1228ETH      H 4869   4.222   3.127   3.238  0.0099 -0.1150  1.7669
 1228ETH     H1 4870   4.128   2.985   3.191 -1.8824  1.7346 -0.8921
 1228ETH     H2 4871   4.232   2.994   3.347  0.8783 -0.3383 -0.0482
 1228ETH     H3 4872   3.977   3.001   3.387 -2.9384  0.6202 -3.6965
 1228ETH     H4 4873   4.066   3.151   3.433 -0.4839  2.3129 -1.2410
 1228ETH     H5 4874   3.930   3.109   3.193 -1.2489  3.1608 -2.2000
 1229ETH      C 4875   0.717   2.102   1.715  0.0815  0.5524 -0.9183
 1229ETH     C1 4876   0.675   2.077   1.860 -0.1484  0.2885 -0.2548
 1229ETH      O 4877   0.782   2.111   1.946 -0.4344  0.4276 -0.3797
 1229ETH      H 4878   0.798   2.030   1.699 -2.3592 -2.6864  0.2776
 1229ETH     H1 4879   0.732   2.208   1.690  1.7053  0.7892  0.8761
 1229ETH     H2 4880   0.640   2.081   1.640 -0.5513  1.5798 -0.5773
 1229ETH     H3 4881   0.585   2.138   1.880  1.0829  1.2501  3.1654
 1229ETH     H4 4882   0.656   1.970   1.872 -0.6717  0.4687  0.6300
 1229ETH     H5 4883   0.771   2.063   2.030 -0.6970  0.0554 -0.6181
 1230ETH      C 4884   3.225   0.939   4.065  0.1256  0.1226 -0.2204
 1230ETH     C1 4885   3.305   1.067   4.105 -0.2668  0.1905 -0.2279
 1230ETH      O 4886   3.239   1.163   4.180  0.4375  0.2433 -0.4707
 1230ETH      H 4887   3.181   0.889   4.152 -0.5664  0.3362 -0.4418
 1230ETH     H1 4888   3.282   0.868   4.005  0.4031 -1.6782  2.0466
 1230ETH     H2 4889   3.153   0.981   3.993 -1.5165  0.0052  1.2791
 1230ETH     H3 4890   3.391   1.038   4.167 -0.8274  0.5724  0.7653
 1230ETH     H4 4891   3.339   1.123   4.017 -1.7391  0.5018 -0.6241
 1230ETH     H5 4892   3.219   1.124   4.267  0.5064  2.1944  0.4724
 1231ETH      C 4893   3.046   1.143   2.404 -0.1645 -0.0221 -0.3296
 1231ETH     C1 4894   2.984   1.029   2.489 -0.2690 -0.2213  0.1802
 1231ETH      O 4895   2.995   1.052   2.629  0.0730 -0.5913 -0.5475
 1231ETH      H 4896   3.016   1.129   2.300  0.3388 -2.1143 -0.2368
 1231ETH     H1 4897   3.155   1.142   2.409 -0.1087  0.4861 -1.2501
 1231ETH     H2 4898   3.011   1.241   2.437 -0.3274  0.0867 -0.8147
 1231ETH     H3 4899   2.878   1.024   2.459 -0.8173 -2.6053  2.2408
 1231ETH     H4 4900   3.016   0.930   2.454 -1.7327 -0.4947 -0.4600
 1231ETH     H5 4901   2.957   1.140   2.647 -1.8826 -1.1816 -1.5374
 1232ETH      C 4902   0.713   2.905   0.869  0.3620  0.5681  0.4746
 1232ETH     C1 4903   0.814   2.911   0.996  0.9234  0.0202  0.6805
 1232ETH      O 4904   0.921   2.827   0.962 -0.3313  0.0509 -1.0001
 1232ETH      H 4905   0.773   2.927   0.780  0.2271  0.2832  0.3117
 1232ETH     H1 4906   0.627   2.973   0.874 -0.3357 -0.1887 -0.6914
 1232ETH     H2 4907   0.676   2.802   0.861 -2.8007  1.5146  1.4798
 1232ETH     H3 4908   0.827   3.019   1.005 -0.6779  0.2786  0.2881
 1232ETH     H4 4909   0.755   2.873   1.080 -1.7792 -2.6569 -2.1468
 1232ETH     H5 4910   0.993   2.844   1.025 -0.9743 -2.2430  0.4474
 1233ETH      C 4911   0.307   3.609   0.486  0.2433  0.3630 -0.3109
 1233ETH     C1 4912   0.429   3.510   0.498  0.7454 -0.3662  0.6284
 1233ETH      O 4913   0.425   3.433   0.382  0.3932 -0.2300  0.1201
 1233ETH      H 4914   0.312   3.664   0.391  1.5877 -0.1984 -0.5949
 1233ETH     H1 4915   0.301   3.674   0.573 -0.1358 -2.9265  2.3345
 1233ETH     H2 4916   0.209   3.561   0.478  0.8050 -0.7545 -0.8838
 1233ETH     H3 4917   0.522   3.568   0.499  0.0250  0.9187 -0.9903
 1233ETH     H4 4918   0.417   3.444   0.584 -0.1077 -1.7417 -0.4967
 1233ETH     H5 4919   0.333   3.428   0.352  0.4504  1.8115 -0.5331
 1234ETH      C 4920   1.576   1.833   0.543  0.5045 -0.9397 -0.0562
 1234ETH     C1 4921   1.687   1.726   0.540 -0.0299 -0.2453  0.1855
 1234ETH      O 4922   1.625   1.600   0.510  0.6039 -0.0321  0.2972
 1234ETH      H 4923   1.497   1.808   0.614 -1.1042  2.1427 -0.5967
 1234ETH     H1 4924   1.530   1.842   0.444  0.9356 -1.1105 -0.2763
 1234ETH     H2 4925   1.628   1.928   0.560 -1.9794  0.0142  3.2624
 1234ETH     H3 4926   1.762   1.754   0.464 -1.6776 -1.2024 -1.9020
 1234ETH     H4 4927   1.724   1.722   0.643 -1.4812  0.3288  0.7433
 1234ETH     H5 4928   1.686   1.536   0.551 -1.0049 -2.1086 -0.3771
 1235ETH      C 4929   0.268   1.731   4.138  0.2810  0.3575  0.5698
 1235ETH     C1 4930   0.395   1.821   4.173  0.0954 -0.8863  0.2024
 1235ETH      O 4931   0.510   1.748   4.137  0.4250 -0.0163  0.3694
 1235ETH      H 4932   0.271   1.642   4.202  1.1362  0.6310  0.9180
 1235ETH     H1 4933   0.263   1.695   4.034 -1.2566 -1.3828  1.1853
 1235ETH     H2 4934   0.178   1.790   4.160  1.5464  3.0342 -0.9773
 1235ETH     H3 4935   0.392   1.902   4.099  1.4245 -1.5680 -0.6411
 1235ETH     H4 4936   0.387   1.863   4.274  0.4765  1.1060 -0.5510
 1235ETH     H5 4937   0.511   1.662   4.182  0.0904  0.7234  1.8504
 1236ETH      C 4938   0.837   1.025   3.903 -0.1444 -0.2680 -0.1262
 1236ETH     C1 4939   0.957   1.007   3.821 -0.7212  0.2103  0.5838
 1236ETH      O 4940   0.981   1.128   3.747 -0.2300  0.5005  0.0202
 1236ETH      H 4941   0.860   1.117   3.960  1.9835 -0.3197 -0.8161
 1236ETH     H1 4942   0.817   0.935   3.963 -1.6551  0.6575  0.8352
 1236ETH     H2 4943   0.748   1.048   3.843 -0.6836 -0.8131  0.4512
 1236ETH     H3 4944   1.044   0.981   3.883  0.7467  1.8474 -0.7213
 1236ETH     H4 4945   0.932   0.925   3.752 -2.3672  2.6734 -1.9743
 1236ETH     H5 4946   0.947   1.121   3.656  1.4917 -1.2384 -0.5689
 1237ETH      C 4947   2.242   1.691   3.486 -0.4842  0.0669 -0.4473
 1237ETH     C1 4948   2.177   1.801   3.412  0.3761 -0.2512  0.6735
 1237ETH      O 4949   2.061   1.752   3.347 -0.5035  0.3949 -0.2753
 1237ETH      H 4950   2.181   1.660   3.571  0.4167  1.1441  0.6508
 1237ETH     H1 4951   2.334   1.737   3.526 -0.7993 -0.7441  1.2919
 1237ETH     H2 4952   2.275   1.608   3.423  0.3966 -0.4088  0.6100
 1237ETH     H3 4953   2.146   1.877   3.484  0.7313  0.6957 -0.1477
 1237ETH     H4 4954   2.241   1.852   3.339  0.7809 -1.0702  0.4377
 1237ETH     H5 4955   2.094   1.702   3.271 -1.0015  2.9069 -2.2546
 1238ETH      C 4956   2.096   0.843   1.834 -0.6888  0.3105  0.4193
 1238ETH     C1 4957   2.012   0.712   1.810  0.0025  0.0358  0.8672
 1238ETH      O 4958   1.874   0.756   1.792 -0.0586 -0.8500  0.2278
 1238ETH      H 4959   2.184   0.814   1.892 -0.7420 -0.6314  0.0608
 1238ETH     H1 4960   2.041   0.930   1.871  0.8110  1.2977  0.4384
 1238ETH     H2 4961   2.139   0.862   1.734 -3.5199 -2.1619 -1.4398
 1238ETH     H3 4962   2.054   0.661   1.722 -0.8834  0.1842  0.3392
 1238ETH     H4 4963   2.014   0.637   1.890 -2.6210 -0.8404  0.2344
 1238ETH     H5 4964   1.870   0.828   1.727  0.7080 -1.2024 -0.2260
 1239ETH      C 4965   4.133   1.702   2.275  0.4356  0.3999 -0.1281
 1239ETH     C1 4966   4.069   1.764   2.401  0.5144  0.0284 -0.3427
 1239ETH      O 4967   4.037   1.894   2.380  0.3081 -0.3964  0.1778
 1239ETH      H 4968   4.225   1.753   2.245  0.3529  1.0654  0.6978
 1239ETH     H1 4969   4.072   1.703   2.184  0.2103  1.7234  0.0193
 1239ETH     H2 4970   4.141   1.595   2.299  0.4948  0.5447  0.5349
 1239ETH     H3 4971   3.984   1.708   2.443  1.2088 -1.7209 -1.1757
 1239ETH     H4 4972   4.145   1.769   2.480  0.4560 -0.4900 -0.2480
 1239ETH     H5 4973   4.113   1.940   2.421  0.7829 -1.0884  0.0944
 1240ETH      C 4974   2.667   0.316   1.450 -0.4010  0.3938  0.3737
 1240ETH     C1 4975   2.759   0.293   1.336  0.3564  0.3597 -0.0324
 1240ETH      O 4976   2.806   0.159   1.347 -0.0689  0.4151 -0.5002
 1240ETH      H 4977   2.648   0.424   1.456  0.5310  0.6173 -0.4730
 1240ETH     H1 4978   2.720   0.286   1.541  1.8752 -1.5139 -1.4598
 1240ETH     H2 4979   2.571   0.265   1.441  0.0235 -0.4235  0.4105
 1240ETH     H3 4980   2.707   0.309   1.240 -1.0295  0.0905  0.6566
 1240ETH     H4 4981   2.852   0.351   1.339  1.0744 -0.7248 -0.5878
 1240ETH     H5 4982   2.728   0.101   1.340  0.4796 -0.6846  1.6394
 1241ETH      C 4983   1.492   4.166   3.679  0.0021  0.0355  0.1581
 1241ETH     C1 4984   1.362   4.144   3.751  0.4021  0.0167 -0.7399
 1241ETH      O 4985   1.379   4.141   3.891  0.3874  0.0239 -0.9842
 1241ETH      H 4986   1.485   4.116   3.582 -0.6558 -0.7036  0.5701
 1241ETH     H1 4987   1.580   4.127   3.733 -0.3773  1.4958  1.9418
 1241ETH     H2 4988   1.510   4.271   3.656  1.5931  0.2935  2.2377
 1241ETH     H3 4989   1.283   4.215   3.728 -1.7384 -1.2923  1.9734
 1241ETH     H4 4990   1.335   4.044   3.714  1.3403 -0.2804 -0.6581
 1241ETH     H5 4991   1.291   4.139   3.933  0.2923  0.6430 -1.1465
 1242ETH      C 4992   3.002   2.132   4.093  0.0864 -0.0355 -0.4369
 1242ETH     C1 4993   3.109   2.070   4.195  0.5072 -0.0186 -0.1346
 1242ETH      O 4994   3.072   2.113   4.324 -0.0594 -0.5439  0.0468
 1242ETH      H 4995   3.046   2.229   4.068  1.3141 -1.1227 -2.8443
 1242ETH     H1 4996   2.905   2.158   4.137 -1.1478 -2.4079 -1.5253
 1242ETH     H2 4997   2.994   2.074   4.000 -0.8470  0.1683 -0.4935
 1242ETH     H3 4998   3.089   1.962   4.191  0.5645 -0.0687  0.7634
 1242ETH     H4 4999   3.214   2.094   4.172  0.5357  1.9603  1.7366
 1242ETH     H5 5000   3.010   2.187   4.311  1.2920  0.1875 -3.2979
 1243ETH      C 5001   2.661   3.453   2.619 -0.3832 -0.4979 -0.3878
 1243ETH     C1 5002   2.629   3.427   2.473 -0.5073 -0.6208 -0.1996
 1243ETH      O 5003   2.549   3.529   2.416 -0.5632  0.1472  0.2822
 1243ETH      H 5004   2.691   3.556   2.643 -0.2823 -0.2498 -1.4983
 1243ETH     H1 5005   2.739   3.394   2.669  2.0132  0.8023 -2.3562
 1243ETH     H2 5006   2.567   3.446   2.676 -0.2832 -0.4108 -0.2122
 1243ETH     H3 5007   2.724   3.426   2.418  0.1489 -0.2582  0.9158
 1243ETH     H4 5008   2.583   3.331   2.447 -0.3717  0.1440 -3.8634
 1243ETH     H5 5009   2.589   3.542   2.328 -0.8439  0.2666  0.1692
 1244ETH      C 5010   2.714   3.199   0.686 -0.5505  0.4240  0.2379
 1244ETH     C1 5011   2.792   3.308   0.769  0.0522  0.0287 -0.4190
 1244ETH      O 5012   2.797   3.423   0.703 -0.3529 -0.7379  0.7775
 1244ETH      H 5013   2.711   3.101   0.735 -0.0060 -0.3980 -1.2895
 1244ETH     H1 5014   2.781   3.181   0.601  0.7998 -0.3119  1.4300
 1244ETH     H2 5015   2.618   3.231   0.644 -0.2329  0.3015 -0.6002
 1244ETH     H3 5016   2.735   3.319   0.862  0.5253 -0.6969 -0.0293
 1244ETH     H4 5017   2.891   3.267   0.794 -0.2294  0.1040  0.8570
 1244ETH     H5 5018   2.851   3.401   0.625 -0.5811 -1.9675  0.9518
 1245ETH      C 5019   3.700   0.533   3.612 -0.5063 -0.1150  0.0246
 1245ETH     C1 5020   3.771   0.526   3.750 -0.7834 -0.7248  0.4791
 1245ETH      O 5021   3.687   0.447   3.836  0.2466  0.2039 -0.1954
 1245ETH      H 5022   3.707   0.432   3.569 -0.2889 -0.1520  0.1451
 1245ETH     H1 5023   3.755   0.600   3.545 -0.8236 -0.1439 -0.2661
 1245ETH     H2 5024   3.595   0.556   3.632 -1.1127 -1.3017 -1.5128
 1245ETH     H3 5025   3.873   0.487   3.737 -1.1715 -1.4778 -0.4502
 1245ETH     H4 5026   3.788   0.622   3.799 -1.4061  0.0301 -0.7243
 1245ETH     H5 5027   3.657   0.368   3.787 -2.2671  0.1432  1.2373
 1246ETH      C 5028   0.480   3.881   0.663 -0.2423  0.2755  0.0176
 1246ETH     C1 5029   0.591   3.983   0.679  0.6475  0.0930 -0.1285
 1246ETH      O 5030   0.574   4.096   0.592  0.6942 -0.4757 -0.6461
 1246ETH      H 5031   0.488   3.787   0.720 -1.0433  0.2985  0.1861
 1246ETH     H1 5032   0.464   3.861   0.557  2.2278 -0.2935 -0.3030
 1246ETH     H2 5033   0.382   3.921   0.689 -0.4439  0.9248 -1.6318
 1246ETH     H3 5034   0.596   4.008   0.786  1.0619 -0.7753  0.0601
 1246ETH     H4 5035   0.689   3.940   0.657 -0.3250 -1.3648 -1.8108
 1246ETH     H5 5036   0.487   4.083   0.550  1.2279 -1.3835 -1.5189
 1247ETH      C 5037   4.192   1.617   0.120 -0.0103  0.1356 -0.6648
 1247ETH     C1 5038   4.169   1.471   0.077 -0.7104 -1.3442 -0.8332
 1247ETH      O 5039   4.079   1.472  -0.026  0.6127  0.3794 -0.5415
 1247ETH      H 5040   4.252   1.627   0.211  0.4110 -0.7730 -0.8228
 1247ETH     H1 5041   4.103   1.676   0.143  1.3950  2.1383 -0.1255
 1247ETH     H2 5042   4.248   1.676   0.046 -0.6678  1.2704 -0.2694
 1247ETH     H3 5043   4.267   1.427   0.056  1.0713  0.5051  2.7365
 1247ETH     H4 5044   4.135   1.419   0.167  1.0639  0.7588  1.1695
 1247ETH     H5 5045   4.020   1.395  -0.016  1.9695 -0.8106 -1.3770
 1248ETH      C 5046   2.124   0.755   1.149 -0.0673  0.4829  0.4764
 1248ETH     C1 5047   2.243   0.750   1.055 -0.7025 -0.0086  0.0794
 1248ETH      O 5048   2.202   0.678   0.939 -0.3863  0.4748 -0.0978
 1248ETH      H 5049   2.033   0.773   1.090 -0.9735  3.5591  2.5892
 1248ETH     H1 5050   2.138   0.831   1.226  0.6220 -2.1924  3.1499
 1248ETH     H2 5051   2.118   0.657   1.198  2.3310 -0.5344 -1.0620
 1248ETH     H3 5052   2.280   0.851   1.032  2.1127 -1.1651 -0.8843
 1248ETH     H4 5053   2.321   0.688   1.101 -2.3025 -2.7254 -0.6463
 1248ETH     H5 5054   2.198   0.754   0.878 -0.2942 -1.3940 -2.6037
 1249ETH      C 5055   2.634   0.745   2.494  0.8136 -0.0905  1.0439
 1249ETH     C1 5056   2.751   0.685   2.412 -0.1958  0.0242 -0.2264
 1249ETH      O 5057   2.847   0.621   2.490 -0.6334  0.0907 -0.0500
 1249ETH      H 5058   2.615   0.850   2.468 -0.9461 -0.5871  0.1280
 1249ETH     H1 5059   2.652   0.733   2.601  2.7669 -3.0418  0.5062
 1249ETH     H2 5060   2.541   0.691   2.469 -0.5610  2.2827  0.7162
 1249ETH     H3 5061   2.702   0.614   2.345  1.2004 -0.1879 -1.0595
 1249ETH     H4 5062   2.797   0.764   2.352 -1.3225  1.7872  1.1155
 1249ETH     H5 5063   2.880   0.684   2.556  1.2146  1.0502 -1.7826
 1250ETH      C 5064   2.218   1.888   3.839  0.1153  0.5513  0.3155
 1250ETH     C1 5065   2.084   1.924   3.779 -0.1689 -0.1890  0.0653
 1250ETH      O 5066   2.033   1.803   3.728  0.0314 -0.4986 -0.0127
 1250ETH      H 5067   2.276   1.970   3.884  0.9545  0.0029  0.2675
 1250ETH     H1 5068   2.282   1.861   3.754 -2.9536 -1.8196 -1.4338
 1250ETH     H2 5069   2.212   1.809   3.914 -3.6962  0.4456  0.0529
 1250ETH     H3 5070   2.027   1.964   3.863  0.5435 -1.0062  0.9625
 1250ETH     H4 5071   2.094   1.995   3.696  0.5580 -0.7799 -0.3630
 1250ETH     H5 5072   1.938   1.809   3.708  0.4470 -0.1969 -2.1909
 1251ETH      C 5073   1.539   1.765   3.143 -0.3741  0.5327 -0.1011
 1251ETH     C1 5074   1.644   1.669   3.201 -0.6874 -0.5977 -0.5271
 1251ETH      O 5075   1.578   1.551   3.246 -0.0648 -0.2877 -0.2717
 1251ETH      H 5076   1.580   1.849   3.086 -1.4208  0.6248 -0.7368
 1251ETH     H1 5077   1.482   1.820   3.219 -0.4027  2.3776 -1.3834
 1251ETH     H2 5078   1.463   1.709   3.088  0.1853 -0.9768  0.6176
 1251ETH     H3 5079   1.714   1.644   3.121  0.1746  0.3973 -0.0977
 1251ETH     H4 5080   1.690   1.716   3.289 -0.6938  1.8696 -1.7727
 1251ETH     H5 5081   1.524   1.586   3.320 -0.2439 -0.5002 -0.3000
 1252ETH      C 5082   3.580   2.269   3.073 -0.0798 -0.4601  0.2887
 1252ETH     C1 5083   3.453   2.292   2.986 -0.3745  0.3069  0.1795
 1252ETH      O 5084   3.463   2.225   2.853  0.4428  0.4595 -0.3020
 1252ETH      H 5085   3.614   2.165   3.080 -0.0068 -0.3976  0.9305
 1252ETH     H1 5086   3.575   2.302   3.177 -1.6996 -0.3265  0.1864
 1252ETH     H2 5087   3.664   2.318   3.021  0.1739 -1.1170  0.0631
 1252ETH     H3 5088   3.363   2.248   3.031 -0.0135 -0.6410  0.0074
 1252ETH     H4 5089   3.429   2.399   2.978 -0.1361  0.4135  0.8371
 1252ETH     H5 5090   3.370   2.222   2.823  0.1012  0.3464  0.7128
 1253ETH      C 5091   2.122   1.327   1.260  0.2492  0.1207 -0.3700
 1253ETH     C1 5092   2.204   1.459   1.277  0.2001 -0.2260  0.3851
 1253ETH      O 5093   2.282   1.485   1.159  0.0331 -0.0098  0.1634
 1253ETH      H 5094   2.185   1.237   1.257 -0.0124 -0.1300  0.8229
 1253ETH     H1 5095   2.074   1.330   1.162  1.1052  1.1199 -0.7773
 1253ETH     H2 5096   2.050   1.305   1.340  1.5012  1.2119  1.1062
 1253ETH     H3 5097   2.143   1.548   1.295 -0.6627 -0.4337 -1.3616
 1253ETH     H4 5098   2.270   1.452   1.365 -2.3855  1.4748  2.6401
 1253ETH     H5 5099   2.233   1.462   1.078  0.3606  1.2896 -0.4321
 1254ETH      C 5100   1.408   3.668   3.203 -0.3662  0.2568 -0.8567
 1254ETH     C1 5101   1.403   3.775   3.092 -0.4025 -0.5768 -0.6519
 1254ETH      O 5102   1.371   3.710   2.972  0.0750  0.3789 -0.0200
 1254ETH      H 5103   1.307   3.630   3.221 -0.8350  1.4211 -0.9114
 1254ETH     H1 5104   1.457   3.716   3.289  0.9771 -3.3272  0.5596
 1254ETH     H2 5105   1.474   3.587   3.170 -0.6797  0.2335 -1.4479
 1254ETH     H3 5106   1.322   3.845   3.113  0.3449 -0.2356  1.3666
 1254ETH     H4 5107   1.498   3.829   3.085 -1.2760  1.7300  2.7802
 1254ETH     H5 5108   1.277   3.684   2.975 -0.1228  0.8110 -1.6683
 1255ETH      C 5109   3.610   3.180   3.319 -0.2838 -0.0135 -0.1397
 1255ETH     C1 5110   3.628   3.178   3.470 -0.8682 -0.1586 -0.1597
 1255ETH      O 5111   3.549   3.073   3.522 -0.3462  0.2849  0.8976
 1255ETH      H 5112   3.506   3.206   3.296 -0.9537 -0.8636  1.7096
 1255ETH     H1 5113   3.643   3.095   3.258 -2.5042  0.5584 -2.2808
 1255ETH     H2 5114   3.659   3.273   3.287  0.3979  0.1459  1.2746
 1255ETH     H3 5115   3.732   3.151   3.492 -1.3225 -1.1437  0.8587
 1255ETH     H4 5116   3.598   3.277   3.508 -0.9038 -0.2013 -0.0752
 1255ETH     H5 5117   3.540   3.087   3.618  0.5025 -2.0267  1.3767
 1256ETH      C 5118   3.047   1.381   0.079  0.0770 -0.0375 -0.4246
 1256ETH     C1 5119   3.147   1.504   0.086  0.3357 -0.6977  0.6802
 1256ETH      O 5120   3.279   1.444   0.097  0.2384 -0.3356 -0.1296
 1256ETH      H 5121   2.948   1.425   0.097  0.0855  0.6803 -1.9747
 1256ETH     H1 5122   3.058   1.307   0.159  0.9352  1.1474  0.6028
 1256ETH     H2 5123   3.050   1.336  -0.021  1.2359  0.9745 -0.8718
 1256ETH     H3 5124   3.140   1.563  -0.006 -1.0059  0.2446  1.3407
 1256ETH     H4 5125   3.120   1.562   0.175  0.6291  1.4276 -0.5586
 1256ETH     H5 5126   3.259   1.394   0.178 -0.5009  1.8332  1.1322
 1257ETH      C 5127   3.735   2.989   2.953  0.3711 -0.1552 -0.2182
 1257ETH     C1 5128   3.875   3.034   2.911  1.2243 -0.2625  0.4644
 1257ETH      O 5129   3.969   3.000   3.016 -0.1156 -0.1057  0.0428
 1257ETH      H 5130   3.666   3.024   2.876  1.7173 -1.0717 -1.8956
 1257ETH     H1 5131   3.702   3.035   3.047 -1.8102 -1.9879  0.0168
 1257ETH     H2 5132   3.720   2.880   2.964 -3.7747  0.2151 -0.3351
 1257ETH     H3 5133   3.905   2.995   2.813 -1.8906  1.3376 -1.2875
 1257ETH     H4 5134   3.876   3.141   2.891  1.7678 -0.6666 -2.0174
 1257ETH     H5 5135   4.049   2.965   2.973 -1.0300 -2.8188  0.3587
 1258ETH      C 5136   1.835   4.181   1.010 -0.2279  0.2343 -0.2631
 1258ETH     C1 5137   1.969   4.128   1.068 -0.0546  0.0074 -0.4932
 1258ETH      O 5138   2.028   4.235   1.145 -0.5071  0.1522  0.2836
 1258ETH      H 5139   1.860   4.266   0.946  0.2275 -0.6831 -1.3505
 1258ETH     H1 5140   1.759   4.211   1.083  0.6128 -0.1217  0.8076
 1258ETH     H2 5141   1.788   4.105   0.947 -1.4889 -0.2977  1.2414
 1258ETH     H3 5142   1.949   4.042   1.132 -1.7382 -0.3394 -1.4224
 1258ETH     H4 5143   2.030   4.082   0.989 -2.7386  0.2113 -2.8343
 1258ETH     H5 5144   1.958   4.297   1.172  1.6607  3.0143 -0.1322
 1259ETH      C 5145   1.761   1.059   3.614 -0.4378 -0.8610  1.2217
 1259ETH     C1 5146   1.771   1.206   3.656 -0.1626 -0.2852 -0.5277
 1259ETH      O 5147   1.726   1.208   3.788 -0.6117  0.3754 -0.0996
 1259ETH      H 5148   1.784   1.044   3.508 -0.3905 -0.5867  1.1926
 1259ETH     H1 5149   1.667   1.010   3.644 -1.3263 -1.6396 -2.3582
 1259ETH     H2 5150   1.846   1.003   3.655 -0.5257 -0.7489  1.5597
 1259ETH     H3 5151   1.872   1.249   3.648 -0.4443  0.3948 -0.5274
 1259ETH     H4 5152   1.710   1.278   3.601  0.6835  2.3547  1.7140
 1259ETH     H5 5153   1.698   1.301   3.798  1.5955  0.9291  1.4478
 1260ETH      C 5154   4.041   2.110   0.086  0.3235 -0.2583 -0.6562
 1260ETH     C1 5155   3.931   2.212   0.085  0.8008  0.6678 -0.5516
 1260ETH      O 5156   3.826   2.181   0.194 -1.0883 -0.0489  0.8371
 1260ETH      H 5157   4.091   2.113  -0.011  0.2733  0.6992 -0.6647
 1260ETH     H1 5158   4.003   2.010   0.108  2.2421 -0.8543  0.2267
 1260ETH     H2 5159   4.116   2.127   0.165 -0.0539 -2.5387  0.2658
 1260ETH     H3 5160   3.969   2.313   0.106 -0.0838  0.5686  1.8605
 1260ETH     H4 5161   3.881   2.226  -0.012  0.8964  2.1828 -0.4115
 1260ETH     H5 5162   3.788   2.095   0.172  1.6318 -1.5393  1.4720
 1261ETH      C 5163   1.564   1.185   3.322 -0.2096 -0.0173 -0.2971
 1261ETH     C1 5164   1.509   1.239   3.191  0.4697  0.4236 -0.5337
 1261ETH      O 5165   1.613   1.311   3.130 -0.1392  0.4105  0.3494
 1261ETH      H 5166   1.590   1.271   3.385  0.2130  1.2191 -2.0750
 1261ETH     H1 5167   1.656   1.129   3.305  0.0459  1.0715 -2.8630
 1261ETH     H2 5168   1.498   1.120   3.381  0.2337 -1.3865 -1.2604
 1261ETH     H3 5169   1.478   1.159   3.123 -4.4760  0.6012  1.0670
 1261ETH     H4 5170   1.417   1.299   3.198  0.0451 -0.3296  0.5912
 1261ETH     H5 5171   1.609   1.399   3.172  1.4292  0.7622 -0.1614
 1262ETH      C 5172   2.393   2.392   1.856  0.0231 -0.2349 -0.1617
 1262ETH     C1 5173   2.506   2.344   1.948 -0.3874  0.2172  0.9379
 1262ETH      O 5174   2.620   2.426   1.918  0.0916 -0.8855 -0.6799
 1262ETH      H 5175   2.296   2.364   1.899 -0.0261  0.6024  0.2851
 1262ETH     H1 5176   2.400   2.350   1.755 -0.9733 -2.1592  0.5148
 1262ETH     H2 5177   2.387   2.500   1.840 -1.7455 -0.4335 -1.1574
 1262ETH     H3 5178   2.468   2.350   2.051 -2.1685 -2.5349  0.5443
 1262ETH     H4 5179   2.533   2.240   1.928  1.2329  0.0190  3.6594
 1262ETH     H5 5180   2.690   2.411   1.983  0.2836 -2.3220 -1.1985
 1263ETH      C 5181   2.858   2.065   0.539 -0.1660  0.2835  0.0471
 1263ETH     C1 5182   2.953   1.954   0.515  0.1169  0.2508 -0.5231
 1263ETH      O 5183   2.882   1.831   0.558  0.1595 -0.3235 -0.0025
 1263ETH      H 5184   2.826   2.063   0.644 -0.2750 -2.2423  0.0188
 1263ETH     H1 5185   2.770   2.054   0.476 -2.5528 -2.9572  3.5331
 1263ETH     H2 5186   2.899   2.163   0.512 -0.4730  0.6311  0.8150
 1263ETH     H3 5187   2.990   1.955   0.412  0.8243  0.2939 -0.2777
 1263ETH     H4 5188   3.038   1.976   0.580 -0.2691  2.3326 -0.6680
 1263ETH     H5 5189   2.945   1.772   0.603 -0.5150 -1.4520 -0.4726
 1264ETH      C 5190   0.519   0.570   1.759  0.5227  0.3016 -0.2402
 1264ETH     C1 5191   0.612   0.628   1.868 -0.5443 -0.0636  0.0329
 1264ETH      O 5192   0.669   0.759   1.833  0.1390  0.0602  0.4671
 1264ETH      H 5193   0.489   0.468   1.784  1.0184 -0.1145 -1.2860
 1264ETH     H1 5194   0.582   0.578   1.670  2.1358  0.9747  0.9137
 1264ETH     H2 5195   0.435   0.640   1.745  0.0739  0.1010  1.2500
 1264ETH     H3 5196   0.545   0.646   1.952 -1.6685 -0.8198 -0.6660
 1264ETH     H4 5197   0.685   0.555   1.904  0.1716  0.1287 -0.9720
 1264ETH     H5 5198   0.745   0.739   1.776  0.3202 -2.9741  1.5811
 1265ETH      C 5199   3.110   4.160   3.547 -0.4044  0.2901 -0.4351
 1265ETH     C1 5200   3.115   4.186   3.387 -0.2799  0.4626  0.2891
 1265ETH      O 5201   2.985   4.194   3.336  0.2491  0.0119 -0.3069
 1265ETH      H 5202   3.059   4.065   3.566  1.9460 -0.8383  0.4817
 1265ETH     H1 5203   3.064   4.238   3.610 -0.1120 -0.2613  0.4796
 1265ETH     H2 5204   3.214   4.150   3.580  0.3424 -0.8005 -2.8757
 1265ETH     H3 5205   3.168   4.281   3.373  2.7510 -1.0793  0.3850
 1265ETH     H4 5206   3.165   4.114   3.321  1.2259  1.6343  0.1001
 1265ETH     H5 5207   2.940   4.237   3.411 -0.1000  0.2405 -0.6407
 1266ETH      C 5208   2.134   2.715   2.427  0.0123  0.8560  0.5341
 1266ETH     C1 5209   1.984   2.731   2.473 -0.1827  0.2810  0.8703
 1266ETH      O 5210   1.896   2.760   2.364  0.0748  0.2640  0.1801
 1266ETH      H 5211   2.138   2.634   2.353  0.8700  2.2210 -0.9922
 1266ETH     H1 5212   2.203   2.679   2.503  0.4962 -1.9467 -1.0886
 1266ETH     H2 5213   2.162   2.809   2.377 -0.7567  0.1850 -1.2630
 1266ETH     H3 5214   1.946   2.639   2.520  2.6774 -1.3040  0.3196
 1266ETH     H4 5215   1.986   2.809   2.549 -0.4736  1.1894 -0.0340
 1266ETH     H5 5216   1.809   2.731   2.395 -1.3863  3.1195 -0.7867
 1267ETH      C 5217   0.198   1.936   3.564 -0.1561  0.9434  0.0364
 1267ETH     C1 5218   0.324   1.980   3.496 -0.5027  0.2547  0.5337
 1267ETH      O 5219   0.406   1.871   3.452  0.1823  0.3301  0.1111
 1267ETH      H 5220   0.119   2.008   3.540 -1.8405 -1.4829 -2.3408
 1267ETH     H1 5221   0.198   1.937   3.674  0.5465  1.3659  0.0382
 1267ETH     H2 5222   0.167   1.839   3.523  1.5399  0.4770 -0.1938
 1267ETH     H3 5223   0.302   2.033   3.402 -2.3490 -1.7567 -0.2545
 1267ETH     H4 5224   0.395   2.045   3.549  2.6209  0.2737 -3.1688
 1267ETH     H5 5225   0.418   1.893   3.358 -1.6279  0.4485 -0.1248
 1268ETH      C 5226   3.606   2.998   3.953 -0.1422 -0.6566  0.4230
 1268ETH     C1 5227   3.532   3.019   3.822  0.3247  0.4154 -0.3521
 1268ETH      O 5228   3.482   3.159   3.796  0.2956 -0.2117 -0.3255
 1268ETH      H 5229   3.682   3.077   3.961  1.0773 -1.4941 -1.7824
 1268ETH     H1 5230   3.634   2.892   3.952 -1.9934 -1.1771 -0.3755
 1268ETH     H2 5231   3.540   3.016   4.038 -1.2694 -0.4370 -0.4774
 1268ETH     H3 5232   3.597   2.984   3.741 -0.3467 -2.3253  0.1860
 1268ETH     H4 5233   3.443   2.955   3.822 -0.8613  1.8904 -3.6170
 1268ETH     H5 5234   3.455   3.197   3.882 -0.6476 -0.5200 -0.4797
 1269ETH      C 5235   1.974   0.686   2.783  0.4770  0.8658 -0.5210
 1269ETH     C1 5236   1.901   0.735   2.661  0.3982  0.0837 -1.0659
 1269ETH      O 5237   1.768   0.762   2.695 -0.1672  1.0272  0.2187
 1269ETH      H 5238   2.082   0.696   2.770  0.6818  0.5013  0.7047
 1269ETH     H1 5239   1.942   0.584   2.807  0.9011  1.2026  1.6949
 1269ETH     H2 5240   1.942   0.741   2.873 -2.0242 -2.2085  0.6851
 1269ETH     H3 5241   1.947   0.829   2.626 -3.5371  1.7867 -2.2719
 1269ETH     H4 5242   1.903   0.648   2.595  1.2951 -0.2466 -0.6317
 1269ETH     H5 5243   1.744   0.683   2.747 -0.5729  1.1770  0.2617
 1270ETH      C 5244   3.391   2.006   1.361 -0.3911 -0.3072 -0.6391
 1270ETH     C1 5245   3.341   2.046   1.505  0.0689  0.0370 -0.0615
 1270ETH      O 5246   3.451   2.052   1.598 -0.0569 -0.2690 -0.0133
 1270ETH      H 5247   3.497   1.976   1.363 -0.1617  0.3945  2.2319
 1270ETH     H1 5248   3.377   2.086   1.287 -0.4031  0.8005  0.5277
 1270ETH     H2 5249   3.319   1.929   1.329 -0.8031 -0.2664  0.1687
 1270ETH     H3 5250   3.293   2.144   1.492  2.3659  1.1284 -0.9571
 1270ETH     H4 5251   3.264   1.978   1.542 -0.3202  0.9603  0.8475
 1270ETH     H5 5252   3.470   1.960   1.623 -0.9101  0.0562  1.9988
 1271ETH      C 5253   4.108   2.561   3.165 -0.6645  0.6485  0.1495
 1271ETH     C1 5254   4.049   2.415   3.135 -0.5459 -0.0907  0.0413
 1271ETH      O 5255   4.120   2.310   3.202 -0.1615  0.2387 -0.0052
 1271ETH      H 5256   4.116   2.596   3.269  0.3316 -1.3998  0.8233
 1271ETH     H1 5257   4.040   2.636   3.124 -1.4910  0.2914  0.8402
 1271ETH     H2 5258   4.206   2.579   3.119  1.0241 -0.6550  2.9327
 1271ETH     H3 5259   3.945   2.408   3.168 -0.1967  0.4203  1.3208
 1271ETH     H4 5260   4.055   2.391   3.028  2.6864  1.2938 -0.2095
 1271ETH     H5 5261   4.108   2.324   3.298 -0.3797 -0.3148  0.0524
 1272ETH      C 5262   1.943   0.086   2.867  1.0623 -0.4142  0.5430
 1272ETH     C1 5263   1.838   0.034   2.958  0.1134  0.5434 -0.6779
 1272ETH      O 5264   1.729  -0.016   2.890 -0.2618  0.2399 -0.5276
 1272ETH      H 5265   2.015   0.152   2.917  1.3858 -0.8319  0.6267
 1272ETH     H1 5266   1.900   0.141   2.782 -0.2246 -2.2216 -0.0266
 1272ETH     H2 5267   2.016   0.015   2.827  1.3239 -0.2632  0.7460
 1272ETH     H3 5268   1.884  -0.036   3.029  0.4739  2.4452  1.0632
 1272ETH     H4 5269   1.807   0.120   3.019 -1.0534 -0.7454  0.6222
 1272ETH     H5 5270   1.760  -0.021   2.797 -0.1714  1.7332 -0.5981
 1273ETH      C 5271   0.269   0.421   0.589  0.5288  0.2860  0.4398
 1273ETH     C1 5272   0.218   0.282   0.630 -0.1998 -0.3215  0.8508
 1273ETH      O 5273   0.327   0.201   0.664 -0.3403  0.2034 -0.1193
 1273ETH      H 5274   0.296   0.480   0.677 -0.2258  3.5359 -1.3209
 1273ETH     H1 5275   0.179   0.466   0.546 -0.0249 -1.0849  0.0981
 1273ETH     H2 5276   0.358   0.426   0.525  0.0191 -1.3419 -0.4745
 1273ETH     H3 5277   0.142   0.289   0.708 -0.2746 -0.3056  0.7763
 1273ETH     H4 5278   0.164   0.242   0.543  1.3974 -0.8523  0.0512
 1273ETH     H5 5279   0.358   0.227   0.752 -0.9701  0.5545  0.0099
 1274ETH      C 5280   3.476   2.546   3.882 -0.0185  0.1951 -0.5391
 1274ETH     C1 5281   3.480   2.394   3.864  0.2875  0.2371 -0.1266
 1274ETH      O 5282   3.345   2.340   3.874 -0.0598 -0.0025  0.3570
 1274ETH      H 5283   3.396   2.573   3.952  0.2665  0.6737 -0.3984
 1274ETH     H1 5284   3.473   2.615   3.797 -1.1208  2.4451  1.2168
 1274ETH     H2 5285   3.569   2.575   3.931 -1.4864  2.3645  1.1682
 1274ETH     H3 5286   3.519   2.368   3.765 -0.7322  0.0553 -0.4910
 1274ETH     H4 5287   3.548   2.343   3.934  2.6644  2.3747 -0.7043
 1274ETH     H5 5288   3.289   2.396   3.931  0.1425  0.1829  0.3775
 1275ETH      C 5289   1.666   4.054   1.367  0.2123 -0.0990 -0.1825
 1275ETH     C1 5290   1.788   4.015   1.447 -0.0164  0.3459 -1.2393
 1275ETH      O 5291   1.747   3.989   1.589  0.3174  0.0418  0.6241
 1275ETH      H 5292   1.632   4.155   1.395 -0.6839 -0.1981 -0.8804
 1275ETH     H1 5293   1.589   3.980   1.387  1.2844 -0.4879  3.0081
 1275ETH     H2 5294   1.695   4.062   1.261  1.3595 -0.3889  0.0985
 1275ETH     H3 5295   1.825   3.921   1.403 -4.7143 -2.9989  1.0480
 1275ETH     H4 5296   1.863   4.095   1.442  1.7490 -1.2044 -0.5479
 1275ETH     H5 5297   1.683   3.916   1.593 -0.9254  1.1363  1.9840
 1276ETH      C 5298   3.728   3.337   4.114  0.6095  0.0135  0.0112
 1276ETH     C1 5299   3.797   3.341   4.252  0.2561  0.7553 -0.0066
 1276ETH      O 5300   3.914   3.424   4.237  0.1127 -0.2316 -0.4477
 1276ETH      H 5301   3.691   3.439   4.098  0.0982  0.0430  1.3107
 1276ETH     H1 5302   3.635   3.278   4.115  0.1617  0.6478 -1.5170
 1276ETH     H2 5303   3.793   3.308   4.031  1.2121  1.9618 -0.2506
 1276ETH     H3 5304   3.726   3.383   4.324  1.6855  3.6436 -0.1661
 1276ETH     H4 5305   3.821   3.240   4.290 -1.7649 -0.0998 -0.8727
 1276ETH     H5 5306   3.879   3.515   4.237 -2.9921 -1.2903  0.3152
 1277ETH      C 5307   3.178   2.286   1.735 -0.4077  0.2716  0.2917
 1277ETH     C1 5308   3.157   2.408   1.829 -0.0539  0.2726 -0.1869
 1277ETH      O 5309   3.246   2.402   1.942  0.5455 -0.0735 -0.0629
 1277ETH      H 5310   3.170   2.189   1.785  0.3750  0.6184  1.1122
 1277ETH     H1 5311   3.281   2.293   1.698  0.2610  2.6954  2.3096
 1277ETH     H2 5312   3.108   2.279   1.651 -1.2739 -0.3427  1.0477
 1277ETH     H3 5313   3.186   2.502   1.780 -1.6678  0.7012 -0.3947
 1277ETH     H4 5314   3.052   2.418   1.858 -0.3095  1.6301 -1.4279
 1277ETH     H5 5315   3.248   2.309   1.971  1.1618 -0.8990 -2.4533
 1278ETH      C 5316   2.113   2.702   1.524 -0.0915 -0.0253  0.4045
 1278ETH     C1 5317   2.041   2.842   1.532  0.6021  0.4579 -0.0871
 1278ETH      O 5318   1.908   2.840   1.479 -0.6135  0.0531 -0.0937
 1278ETH      H 5319   2.217   2.733   1.538 -0.4136  1.3219 -0.0230
 1278ETH     H1 5320   2.110   2.652   1.427  1.9615 -0.8289  0.7094
 1278ETH     H2 5321   2.085   2.634   1.605 -0.4776  0.1825  0.4525
 1278ETH     H3 5322   2.043   2.878   1.636  0.9392  0.3158 -0.0421
 1278ETH     H4 5323   2.100   2.918   1.480 -1.2564  1.0749 -1.3854
 1278ETH     H5 5324   1.899   2.774   1.408  1.0711 -1.1976  0.7912
 1279ETH      C 5325   1.801   0.565   1.316 -0.5792 -0.1797 -0.4518
 1279ETH     C1 5326   1.941   0.509   1.349  0.3774 -0.0884 -0.1763
 1279ETH      O 5327   1.990   0.428   1.248 -0.3813 -0.0661 -0.5432
 1279ETH      H 5328   1.808   0.634   1.231  0.6607  1.0138  0.5668
 1279ETH     H1 5329   1.780   0.609   1.414 -0.7091 -0.5447 -0.3137
 1279ETH     H2 5330   1.727   0.487   1.295  0.3057 -0.9525 -0.7712
 1279ETH     H3 5331   2.008   0.593   1.370  0.0366  0.0706  0.2836
 1279ETH     H4 5332   1.932   0.451   1.441  0.3096  0.3881  0.1152
 1279ETH     H5 5333   1.982   0.479   1.166 -0.0180  1.4172  0.3148
 1280ETH      C 5334   2.954   2.124   3.555  0.2778 -0.1823 -0.1510
 1280ETH     C1 5335   2.917   2.169   3.698  0.3899 -0.1485  0.8025
 1280ETH      O 5336   2.800   2.234   3.683 -0.8097  0.4214  0.0312
 1280ETH      H 5337   2.936   2.206   3.484 -0.7290 -0.9005 -0.7539
 1280ETH     H1 5338   2.885   2.042   3.530  1.5681 -0.9893 -1.2592
 1280ETH     H2 5339   3.056   2.082   3.555  0.8052  1.0677 -0.5575
 1280ETH     H3 5340   2.913   2.085   3.769  0.6481  1.1613  2.4122
 1280ETH     H4 5341   2.995   2.234   3.738 -1.1747  0.6493  2.7307
 1280ETH     H5 5342   2.740   2.168   3.645  0.4922 -0.3129 -0.8170
 1281ETH      C 5343   2.501   3.859   2.330  0.3842 -0.2716  0.0307
 1281ETH     C1 5344   2.491   3.987   2.402  0.0012  0.1593  0.2752
 1281ETH      O 5345   2.474   3.962   2.544  0.1344  0.0388  0.0526
 1281ETH      H 5346   2.508   3.881   2.223 -3.0894  2.8959  0.2450
 1281ETH     H1 5347   2.409   3.801   2.340  0.4166 -0.3400 -0.0635
 1281ETH     H2 5348   2.586   3.797   2.361  0.1714 -1.9906 -2.5080
 1281ETH     H3 5349   2.578   4.051   2.380 -1.2909  1.5784 -0.9019
 1281ETH     H4 5350   2.400   4.035   2.365 -2.4682 -2.8496  2.0235
 1281ETH     H5 5351   2.452   3.868   2.548  0.8001 -0.1017  2.8740
 1282ETH      C 5352   0.231   1.418   3.464  0.5891  0.7868 -1.1459
 1282ETH     C1 5353   0.335   1.453   3.360  0.1835  0.2021  0.0461
 1282ETH      O 5354   0.398   1.578   3.396 -0.0508 -0.3832 -0.2382
 1282ETH      H 5355   0.153   1.495   3.455  0.6792  0.7200 -2.7617
 1282ETH     H1 5356   0.263   1.436   3.567 -0.0549  0.9415 -0.9675
 1282ETH     H2 5357   0.194   1.316   3.451 -1.0756  1.5166 -2.5165
 1282ETH     H3 5358   0.403   1.367   3.360  1.1051  0.8873 -1.8366
 1282ETH     H4 5359   0.290   1.450   3.260  1.5395  3.2479 -0.7640
 1282ETH     H5 5360   0.331   1.638   3.433  0.6701  0.5974 -0.4770
 1283ETH      C 5361   1.699   3.449   3.014  0.1172 -0.0937  0.5759
 1283ETH     C1 5362   1.756   3.455   2.868  0.4845  0.7957  0.0872
 1283ETH      O 5363   1.708   3.568   2.793 -0.1310 -0.3488 -0.4954
 1283ETH      H 5364   1.769   3.396   3.079  0.3828  1.5277  1.6805
 1283ETH     H1 5365   1.610   3.385   3.019  1.8550 -2.8785 -1.2008
 1283ETH     H2 5366   1.680   3.548   3.057 -1.3386 -1.2141  2.7012
 1283ETH     H3 5367   1.866   3.457   2.876  0.6034 -3.5257  4.7727
 1283ETH     H4 5368   1.735   3.367   2.807  0.2274  1.2632 -0.5097
 1283ETH     H5 5369   1.775   3.586   2.725  0.2426 -0.5848 -0.1988
 1284ETH      C 5370   2.669   3.974   1.930 -0.3280 -0.1135 -0.2022
 1284ETH     C1 5371   2.792   3.888   1.925 -0.7363  0.0288 -0.0302
 1284ETH      O 5372   2.889   3.925   2.018  0.0095 -0.6184 -0.0687
 1284ETH      H 5373   2.685   4.081   1.943 -1.0225 -0.1190  0.8522
 1284ETH     H1 5374   2.599   3.939   2.008 -1.7926  2.9359 -0.0091
 1284ETH     H2 5375   2.606   3.953   1.843 -0.1454 -0.5312 -0.2364
 1284ETH     H3 5376   2.753   3.786   1.935 -1.0001  0.2201  1.1270
 1284ETH     H4 5377   2.832   3.906   1.825  5.1487  2.5714  2.3502
 1284ETH     H5 5378   2.950   3.853   2.043  1.0803  1.1635  2.9306
 1285ETH      C 5379   2.584   0.405   0.262 -0.7593 -0.9722 -0.0569
 1285ETH     C1 5380   2.613   0.535   0.181  0.2215 -0.2697  0.7742
 1285ETH      O 5381   2.626   0.656   0.252 -0.4756  0.0098 -0.1185
 1285ETH      H 5382   2.484   0.409   0.306 -0.1714  0.2929  1.2597
 1285ETH     H1 5383   2.652   0.386   0.346 -2.0904 -0.5602  1.1474
 1285ETH     H2 5384   2.570   0.319   0.196  1.6822 -0.4220 -1.4260
 1285ETH     H3 5385   2.697   0.513   0.114 -1.2237 -0.9475 -0.9134
 1285ETH     H4 5386   2.529   0.543   0.112 -0.8255 -0.9905  1.9123
 1285ETH     H5 5387   2.720   0.676   0.266 -0.7739  0.5081  1.3337
 1286ETH      C 5388   1.376   0.066   2.554  0.4079  0.0688 -0.4077
 1286ETH     C1 5389   1.252  -0.026   2.548 -0.0939 -0.7148 -0.1102
 1286ETH      O 5390   1.296  -0.158   2.582  0.2028  0.2123  0.3342
 1286ETH      H 5391   1.431   0.052   2.648 -0.1607 -2.3870 -0.3762
 1286ETH     H1 5392   1.326   0.163   2.541 -2.5383 -1.3199 -0.3648
 1286ETH     H2 5393   1.453   0.038   2.482 -0.5242 -1.0399 -0.9979
 1286ETH     H3 5394   1.169   0.006   2.613 -1.7252  0.5087 -2.6460
 1286ETH     H4 5395   1.204  -0.008   2.451 -2.4842 -0.9590  0.9388
 1286ETH     H5 5396   1.381  -0.175   2.540  0.7294 -0.4519  1.6026
 1287ETH      C 5397   0.946   1.132   2.941  1.3372 -0.2720 -0.1148
 1287ETH     C1 5398   0.977   0.999   3.014  0.1041  0.4177  0.0897
 1287ETH      O 5399   0.972   1.029   3.155  0.2910 -0.1423 -0.5176
 1287ETH      H 5400   0.964   1.105   2.836 -0.2099 -1.7337 -0.0383
 1287ETH     H1 5401   1.009   1.217   2.970  0.5995  1.2393 -2.5786
 1287ETH     H2 5402   0.845   1.173   2.932  1.9244  0.9780 -1.5982
 1287ETH     H3 5403   0.898   0.931   2.980  0.5006  0.0043 -0.0087
 1287ETH     H4 5404   1.075   0.963   2.982 -0.6341 -1.7709  0.1330
 1287ETH     H5 5405   0.949   1.123   3.154 -2.4658 -0.7013 -2.0229
 1288ETH      C 5406   0.743   1.701   3.438 -0.3237 -0.4921 -0.4869
 1288ETH     C1 5407   0.748   1.545   3.432 -0.1741 -0.1948  0.1771
 1288ETH      O 5408   0.631   1.488   3.501 -0.4219 -0.5539 -0.1660
 1288ETH      H 5409   0.668   1.731   3.365 -2.6096 -1.1664  1.4305
 1288ETH     H1 5410   0.838   1.747   3.410 -1.7010  1.8505 -1.5279
 1288ETH     H2 5411   0.709   1.749   3.531  0.5334 -0.6440 -0.0807
 1288ETH     H3 5412   0.757   1.521   3.326  1.3649  0.9490  0.0036
 1288ETH     H4 5413   0.838   1.503   3.480 -1.3539 -1.8403  1.0408
 1288ETH     H5 5414   0.552   1.541   3.481  0.0726  0.4059  0.3631
 1289ETH      C 5415   0.329   1.277   1.691  0.0332  0.7856 -0.3705
 1289ETH     C1 5416   0.284   1.392   1.789 -0.4172 -0.2721 -0.3436
 1289ETH      O 5417   0.154   1.360   1.848 -0.0950  0.1886 -0.2999
 1289ETH      H 5418   0.419   1.319   1.643  0.5128  1.5878  1.1681
 1289ETH     H1 5419   0.259   1.249   1.612 -0.4193 -3.2985  1.2177
 1289ETH     H2 5420   0.344   1.189   1.754  2.2054  0.9733 -0.5195
 1289ETH     H3 5421   0.358   1.402   1.869 -0.0717 -1.0212 -0.5560
 1289ETH     H4 5422   0.284   1.487   1.733  1.3219 -1.2804 -2.2082
 1289ETH     H5 5423   0.085   1.354   1.779 -0.9487 -0.8647  0.5915
 1290ETH      C 5424   0.131   0.923   0.166 -0.3504 -0.3242  0.5901
 1290ETH     C1 5425   0.052   0.798   0.117  0.4697 -0.2155  0.4003
 1290ETH      O 5426   0.133   0.704   0.043 -0.2218  0.0646 -0.3937
 1290ETH      H 5427   0.069   1.006   0.202 -0.2291 -0.5790  1.4058
 1290ETH     H1 5428   0.192   0.960   0.082  0.3979  0.1397  1.3213
 1290ETH     H2 5429   0.205   0.897   0.243  0.9466  0.7535 -0.2356
 1290ETH     H3 5430   0.005   0.748   0.203 -1.0900  0.3631 -0.0722
 1290ETH     H4 5431  -0.034   0.833   0.059  0.8596  1.3101  0.6911
 1290ETH     H5 5432   0.212   0.754   0.015  0.5572  1.2005  3.3149
 1291ETH      C 5433   1.893   1.518   1.005 -0.0015  0.2887  0.0819
 1291ETH     C1 5434   1.991   1.421   0.919  0.8580  0.7938  0.0214
 1291ETH      O 5435   2.119   1.470   0.914 -0.1138  0.0434  0.6645
 1291ETH      H 5436   1.883   1.617   0.958  0.1641  1.4298  2.2882
 1291ETH     H1 5437   1.941   1.523   1.104  0.1723 -2.2553  0.1717
 1291ETH     H2 5438   1.793   1.473   1.012 -0.9215  1.9380 -1.3815
 1291ETH     H3 5439   1.985   1.331   0.982  0.7914  2.8331  3.1811
 1291ETH     H4 5440   1.955   1.410   0.816  1.1227 -0.4891  0.0464
 1291ETH     H5 5441   2.106   1.560   0.880 -1.0923 -0.1115  0.6280
 1292ETH      C 5442   3.805   1.576   3.137  0.6070 -1.0110 -0.4132
 1292ETH     C1 5443   3.663   1.512   3.157 -0.2596  0.0937  0.4515
 1292ETH      O 5444   3.584   1.617   3.217  0.2159  0.0351 -1.3762
 1292ETH      H 5445   3.867   1.494   3.100 -1.0803 -2.6398  0.2149
 1292ETH     H1 5446   3.847   1.606   3.234 -0.8516 -0.1630 -0.0089
 1292ETH     H2 5447   3.815   1.662   3.070  3.2525  0.2094  1.3576
 1292ETH     H3 5448   3.616   1.479   3.064 -0.8877 -0.7164  1.0442
 1292ETH     H4 5449   3.666   1.423   3.221 -2.0031 -1.3268 -1.3669
 1292ETH     H5 5450   3.636   1.695   3.191  0.6107 -0.3810 -1.8598
 1293ETH      C 5451   0.708   2.937   3.326  0.3894  0.5216 -0.1081
 1293ETH     C1 5452   0.584   2.956   3.237 -0.0857  0.4263 -0.5559
 1293ETH      O 5453   0.468   3.003   3.313 -0.0622 -0.3475 -0.2197
 1293ETH      H 5454   0.744   3.037   3.353  0.6764 -0.4403  3.6513
 1293ETH     H1 5455   0.771   2.866   3.272 -2.4078 -0.9983 -1.5806
 1293ETH     H2 5456   0.680   2.881   3.417  0.2271  0.4933 -0.1755
 1293ETH     H3 5457   0.618   3.030   3.164  1.4391 -1.2832 -1.6602
 1293ETH     H4 5458   0.568   2.870   3.171  0.5548  1.1279 -1.6622
 1293ETH     H5 5459   0.422   2.929   3.357  0.6297 -0.5510  0.1843
 1294ETH      C 5460   0.339   1.301   2.784 -0.5853 -0.3460 -0.1542
 1294ETH     C1 5461   0.413   1.244   2.905 -0.1988  0.1142  0.0763
 1294ETH      O 5462   0.458   1.116   2.867  0.5731  0.4773 -0.0721
 1294ETH      H 5463   0.264   1.233   2.742  0.3529 -0.7991 -1.1392
 1294ETH     H1 5464   0.413   1.338   2.712 -0.9131  2.8562  0.9630
 1294ETH     H2 5465   0.279   1.390   2.808  1.3581  1.0593 -0.2402
 1294ETH     H3 5466   0.494   1.309   2.943 -0.8948  0.1159  1.6559
 1294ETH     H4 5467   0.344   1.237   2.990  0.6620  0.5705  0.8317
 1294ETH     H5 5468   0.490   1.118   2.776  0.5156 -0.7575 -0.1335
 1295ETH      C 5469   0.447   1.491   1.433  0.2380 -0.3564 -0.1233
 1295ETH     C1 5470   0.585   1.529   1.496 -0.0658 -0.6069 -0.0949
 1295ETH      O 5471   0.645   1.434   1.589  0.4280  0.0093 -0.3051
 1295ETH      H 5472   0.439   1.389   1.393 -0.8592 -0.7169  0.9849
 1295ETH     H1 5473   0.428   1.566   1.355 -1.6500 -0.2291  0.4325
 1295ETH     H2 5474   0.362   1.499   1.500  0.6203  0.1431  0.3068
 1295ETH     H3 5475   0.657   1.544   1.415  2.2857 -2.0070  1.5817
 1295ETH     H4 5476   0.580   1.631   1.537 -2.0561 -0.9429  0.6000
 1295ETH     H5 5477   0.621   1.346   1.555  3.5996 -0.9063 -0.5495
 1296ETH      C 5478   2.961   1.005   1.141 -0.0302 -0.3198 -0.2825
 1296ETH     C1 5479   3.019   0.870   1.146  0.5735 -0.0925  0.7054
 1296ETH      O 5480   3.149   0.887   1.089  0.1222  0.4941  0.2660
 1296ETH      H 5481   3.010   1.064   1.219 -0.2352  0.2331 -0.5664
 1296ETH     H1 5482   2.852   1.007   1.152  0.0505  2.8294  0.6647
 1296ETH     H2 5483   2.984   1.043   1.040 -0.7501  0.0932 -0.2897
 1296ETH     H3 5484   3.015   0.827   1.247  0.0081 -0.1208  0.6751
 1296ETH     H4 5485   2.947   0.812   1.086 -1.6636  2.8356  0.3354
 1296ETH     H5 5486   3.143   0.920   0.998 -0.2681  2.1016  0.8335
 1297ETH      C 5487   2.379   3.362   1.372  0.3109 -0.1177  0.0469
 1297ETH     C1 5488   2.525   3.354   1.398 -0.8231 -0.0252  0.1819
 1297ETH      O 5489   2.598   3.335   1.276  0.4555 -0.3876  0.0610
 1297ETH      H 5490   2.318   3.367   1.463 -0.6073 -0.8897 -0.4967
 1297ETH     H1 5491   2.333   3.275   1.324 -1.0246  0.6517 -0.1355
 1297ETH     H2 5492   2.349   3.447   1.309 -3.4618 -0.5789  0.9391
 1297ETH     H3 5493   2.565   3.444   1.447  1.3487 -0.6111 -0.3895
 1297ETH     H4 5494   2.552   3.263   1.453  0.4146 -0.2757 -0.7883
 1297ETH     H5 5495   2.595   3.421   1.229  1.1918 -1.4500 -2.0376
 1298ETH      C 5496   2.963   0.780   2.938  0.2190 -0.1155  0.0714
 1298ETH     C1 5497   3.024   0.732   2.803 -0.0493  0.1796 -0.2468
 1298ETH      O 5498   2.949   0.780   2.695 -0.1368 -0.6378  0.3199
 1298ETH      H 5499   2.963   0.888   2.955  0.2022 -0.6059  4.2157
 1298ETH     H1 5500   3.016   0.739   3.025  1.1747  1.0317  0.0446
 1298ETH     H2 5501   2.860   0.742   2.945 -0.1665  1.0172  0.8197
 1298ETH     H3 5502   3.125   0.774   2.796  0.1161 -0.2064 -0.2478
 1298ETH     H4 5503   3.024   0.622   2.794  0.2881  0.2576 -1.4466
 1298ETH     H5 5504   2.970   0.874   2.684  1.3835 -0.9387  0.4715
 1299ETH      C 5505   2.177   2.053   1.887 -0.2865 -0.5812  0.2205
 1299ETH     C1 5506   2.129   1.913   1.845 -0.3444 -0.2314  0.0496
 1299ETH      O 5507   2.238   1.824   1.882 -0.2286 -0.4970  0.2941
 1299ETH      H 5508   2.145   2.069   1.990 -0.3139  1.4224 -0.0526
 1299ETH     H1 5509   2.132   2.130   1.824  1.0727 -0.7839 -1.0568
 1299ETH     H2 5510   2.286   2.061   1.880 -0.4183  2.0150  0.3145
 1299ETH     H3 5511   2.038   1.889   1.900  0.2230 -1.1546  0.6165
 1299ETH     H4 5512   2.106   1.914   1.738  0.9775 -0.1225 -0.2540
 1299ETH     H5 5513   2.317   1.872   1.850 -0.0996 -0.6389  0.4016
 1300ETH      C 5514   3.728   1.069   2.972 -0.2051  0.2971  0.1901
 1300ETH     C1 5515   3.775   1.210   2.985  0.0559  1.0422 -0.5442
 1300ETH      O 5516   3.714   1.297   2.892  0.1457  0.3838  0.2393
 1300ETH      H 5517   3.632   1.057   3.023  0.1931  0.4617  0.9931
 1300ETH     H1 5518   3.796   1.001   3.024  0.4616  2.5805  2.4699
 1300ETH     H2 5519   3.704   1.032   2.871  0.9795  0.3558 -0.1286
 1300ETH     H3 5520   3.759   1.248   3.086 -1.7040  0.2543 -0.4954
 1300ETH     H4 5521   3.883   1.205   2.965  0.1813  2.3331 -0.2490
 1300ETH     H5 5522   3.620   1.279   2.877  0.6855 -1.0537 -1.8298
 1301ETH      C 5523   3.346   0.961   3.032  0.3663 -0.3329  0.4623
 1301ETH     C1 5524   3.297   1.096   3.090  0.1933 -0.0453 -0.6217
 1301ETH      O 5525   3.357   1.210   3.039  0.1603 -0.1032  0.1464
 1301ETH      H 5526   3.447   0.938   3.068  1.6540  0.4330 -2.4143
 1301ETH     H1 5527   3.355   0.959   2.923  1.6087  0.1236  0.5332
 1301ETH     H2 5528   3.284   0.876   3.063  0.7251  0.0888  2.4638
 1301ETH     H3 5529   3.191   1.113   3.069  0.7939  2.8184 -1.7284
 1301ETH     H4 5530   3.308   1.089   3.199  0.4931 -1.1484 -0.7091
 1301ETH     H5 5531   3.315   1.291   3.072 -2.8353 -1.8666  1.0199
 1302ETH      C 5532   0.726   2.064   2.434  0.3652 -0.7581 -0.2805
 1302ETH     C1 5533   0.708   2.113   2.292  0.0593 -0.3094  0.6071
 1302ETH      O 5534   0.718   1.999   2.210 -0.0073 -0.3089 -0.0075
 1302ETH      H 5535   0.664   1.981   2.469 -1.3922  0.2440 -0.9175
 1302ETH     H1 5536   0.697   2.142   2.506 -2.1445 -0.7285 -1.2334
 1302ETH     H2 5537   0.833   2.050   2.452  0.7686  1.2401 -0.8881
 1302ETH     H3 5538   0.618   2.175   2.280 -0.3617 -0.8419  0.9746
 1302ETH     H4 5539   0.795   2.178   2.273  0.1971 -0.4222  0.8501
 1302ETH     H5 5540   0.653   1.935   2.246 -0.0792 -0.0972  0.2461
 1303ETH      C 5541   3.273   1.813   2.019 -0.5617 -1.2731  0.1931
 1303ETH     C1 5542   3.200   1.886   1.908  0.3867  0.1274  0.3762
 1303ETH      O 5543   3.116   1.990   1.967  0.0554 -0.2897 -0.1420
 1303ETH      H 5544   3.347   1.885   2.055 -2.3117  0.2446  0.8836
 1303ETH     H1 5545   3.316   1.716   1.990 -2.4995 -2.2579  0.3899
 1303ETH     H2 5546   3.203   1.796   2.102 -0.2812  1.3404  1.0482
 1303ETH     H3 5547   3.274   1.913   1.831 -1.0469 -0.0994 -1.1309
 1303ETH     H4 5548   3.137   1.810   1.861 -2.4019  0.4406  3.2727
 1303ETH     H5 5549   3.038   1.944   2.003  0.4182 -0.2619  0.6919
 1304ETH      C 5550   0.109   0.809   1.608  0.0674  1.0432 -1.2168
 1304ETH     C1 5551   0.124   0.842   1.455  0.2066  0.0514  0.6010
 1304ETH      O 5552   0.116   0.719   1.381  0.1287 -0.6786 -0.1327
 1304ETH      H 5553   0.112   0.892   1.680 -2.3726  0.9994 -0.9782
 1304ETH     H1 5554   0.181   0.731   1.634 -1.3133 -0.0181 -0.4464
 1304ETH     H2 5555   0.008   0.766   1.615  0.6948 -0.3501 -0.2039
 1304ETH     H3 5556   0.049   0.919   1.433 -1.8931 -1.6060  1.5619
 1304ETH     H4 5557   0.226   0.881   1.451  0.5878 -0.6080  2.5994
 1304ETH     H5 5558   0.043   0.666   1.418 -1.1696  1.5154  0.6670
 1305ETH      C 5559   1.199   1.534   3.193  0.5246 -0.8822  0.3989
 1305ETH     C1 5560   1.052   1.495   3.209 -0.2375  0.0930  1.1872
 1305ETH      O 5561   1.044   1.380   3.289 -0.1561  0.1037 -0.3123
 1305ETH      H 5562   1.226   1.580   3.288 -2.6598 -1.4752  1.7305
 1305ETH     H1 5563   1.214   1.608   3.113  0.2046  1.0787  2.0748
 1305ETH     H2 5564   1.264   1.455   3.154  0.2401 -0.6559 -0.5873
 1305ETH     H3 5565   0.987   1.575   3.246 -1.8341 -0.5324 -0.1487
 1305ETH     H4 5566   1.019   1.468   3.108  1.9552  1.2756  0.0853
 1305ETH     H5 5567   0.963   1.337   3.257 -1.1030  0.9036  0.8841
 1306ETH      C 5568   1.565   1.355   2.147  0.3953  0.2630  0.2564
 1306ETH     C1 5569   1.455   1.428   2.071  0.1250  0.1850 -0.0523
 1306ETH      O 5570   1.410   1.538   2.150 -0.1779 -0.1294 -0.2982
 1306ETH      H 5571   1.536   1.300   2.238  1.1514 -2.6505 -1.1182
 1306ETH     H1 5572   1.644   1.426   2.171  0.1246  0.8271 -0.5049
 1306ETH     H2 5573   1.612   1.278   2.084 -1.3295 -1.1124  0.5513
 1306ETH     H3 5574   1.486   1.463   1.972 -3.8392 -0.6242 -1.7876
 1306ETH     H4 5575   1.367   1.364   2.056  0.1854  0.4313 -1.6145
 1306ETH     H5 5576   1.319   1.559   2.124 -0.5419  0.4009  1.3100
 1307ETH      C 5577   2.646   1.586   3.579  0.0117 -0.0960 -0.3329
 1307ETH     C1 5578   2.594   1.585   3.725  0.2843 -0.5258  0.5473
 1307ETH      O 5579   2.601   1.718   3.766  0.1005  0.3251 -0.2043
 1307ETH      H 5580   2.751   1.613   3.566  0.0211  0.1817  0.2743
 1307ETH     H1 5581   2.578   1.655   3.527  0.4458  0.5151 -0.1098
 1307ETH     H2 5582   2.627   1.488   3.535  0.7634  0.5258 -2.1147
 1307ETH     H3 5583   2.489   1.551   3.730 -1.3455  3.6723 -0.7706
 1307ETH     H4 5584   2.662   1.525   3.786  1.2311 -0.7244 -0.6677
 1307ETH     H5 5585   2.652   1.721   3.849 -0.4345 -0.0126  0.1480
 1308ETH      C 5586   2.812   1.265   3.984  0.1404  0.4146 -0.4642
 1308ETH     C1 5587   2.945   1.194   4.004 -0.0277  0.1375  0.0161
 1308ETH      O 5588   3.058   1.288   3.995  0.1475 -0.0616  0.0759
 1308ETH      H 5589   2.723   1.204   4.004 -0.1742  0.6524 -1.0861
 1308ETH     H1 5590   2.817   1.310   3.884  1.5315 -1.0835 -1.1023
 1308ETH     H2 5591   2.797   1.349   4.053 -1.5378 -0.1836 -0.0377
 1308ETH     H3 5592   2.938   1.137   4.097 -1.7473  0.4303  0.0990
 1308ETH     H4 5593   2.956   1.113   3.930  0.5450 -0.5774  0.8571
 1308ETH     H5 5594   3.124   1.265   4.062 -0.2536  1.1637  0.9324
 1309ETH      C 5595   3.218   3.853   3.736 -0.0448  0.5715 -0.2422
 1309ETH     C1 5596   3.142   3.908   3.861  1.0018  0.8648 -0.0337
 1309ETH      O 5597   3.036   3.823   3.897 -0.2429  0.1759 -0.3206
 1309ETH      H 5598   3.271   3.939   3.695 -0.8013  0.8975 -0.5624
 1309ETH     H1 5599   3.147   3.813   3.662 -0.7849 -0.0358  0.7609
 1309ETH     H2 5600   3.276   3.769   3.776 -1.3800  0.1841  0.9510
 1309ETH     H3 5601   3.214   3.905   3.944  0.7043  0.2892  0.2087
 1309ETH     H4 5602   3.106   4.009   3.841 -2.2157 -0.5800 -2.4462
 1309ETH     H5 5603   2.974   3.833   3.822 -0.4603  4.4250  0.1616
 1310ETH      C 5604   0.424   0.321   2.881  0.7844  0.1156  0.0582
 1310ETH     C1 5605   0.430   0.245   2.746 -0.5405  0.3330 -0.0196
 1310ETH      O 5606   0.563   0.193   2.730  0.2032  0.4357  0.0471
 1310ETH      H 5607   0.517   0.380   2.886 -0.1310  1.5677  0.8394
 1310ETH     H1 5608   0.426   0.254   2.968  1.7832 -1.5288 -1.1760
 1310ETH     H2 5609   0.330   0.375   2.899 -0.0317 -1.4282  0.5491
 1310ETH     H3 5610   0.358   0.165   2.766  0.8195 -0.7277  0.8286
 1310ETH     H4 5611   0.404   0.305   2.658  0.9906  1.3185  0.1703
 1310ETH     H5 5612   0.567   0.155   2.641 -0.7054  1.0333 -0.2571
 1311ETH      C 5613   1.057   2.668   0.042 -1.0578  0.2275 -0.3517
 1311ETH     C1 5614   1.077   2.513   0.050  0.1086 -0.4145  0.4307
 1311ETH      O 5615   1.189   2.488   0.132  0.5429  0.4623 -0.4712
 1311ETH      H 5616   1.155   2.715   0.027 -0.3109 -1.5260 -1.2990
 1311ETH     H1 5617   1.010   2.686   0.140 -1.1957 -0.5543 -0.2635
 1311ETH     H2 5618   0.993   2.700  -0.041  0.2584 -0.7859 -1.8112
 1311ETH     H3 5619   0.989   2.458   0.085  1.0316 -1.3316  1.4053
 1311ETH     H4 5620   1.105   2.489  -0.053  0.2486  0.2919  0.3034
 1311ETH     H5 5621   1.209   2.393   0.118  0.7898  0.8634 -3.3809
 1312ETH      C 5622   0.963   0.746   0.232 -0.4584  0.2272 -0.0140
 1312ETH     C1 5623   0.839   0.764   0.155  0.3382 -0.3450 -0.7836
 1312ETH      O 5624   0.852   0.820   0.022  0.0964 -0.8323  0.1099
 1312ETH      H 5625   1.021   0.664   0.189 -1.3228 -0.2063 -0.3655
 1312ETH     H1 5626   0.939   0.715   0.334  0.9922  0.7915  0.5233
 1312ETH     H2 5627   1.026   0.836   0.229 -1.1677  0.7360  0.3005
 1312ETH     H3 5628   0.771   0.678   0.165  0.6602 -0.6477 -1.1596
 1312ETH     H4 5629   0.791   0.838   0.220  0.2020 -0.7711 -0.3904
 1312ETH     H5 5630   0.919   0.780  -0.036  0.2495  2.3324 -2.1653
 1313ETH      C 5631   2.716   0.257   4.200 -0.1703 -0.3609  0.4548
 1313ETH     C1 5632   2.665   0.343   4.080  0.1870  0.2000  0.4255
 1313ETH      O 5633   2.568   0.277   3.997  0.1201  0.3335  0.2142
 1313ETH      H 5634   2.799   0.301   4.257 -0.8785  0.6734  0.7049
 1313ETH     H1 5635   2.741   0.163   4.149 -1.5437  0.4674 -1.9368
 1313ETH     H2 5636   2.632   0.246   4.269  0.1858  2.0447  1.3548
 1313ETH     H3 5637   2.625   0.435   4.124  2.9165  0.3911  2.8133
 1313ETH     H4 5638   2.754   0.369   4.022  0.2122 -1.2766 -0.2446
 1313ETH     H5 5639   2.484   0.268   4.045  1.4112 -0.3666  2.4866
 1314ETH      C 5640   0.132   4.096   3.992 -0.3018  0.2392  0.1066
 1314ETH     C1 5641   0.014   4.138   3.913  0.9230 -0.0361  0.9636
 1314ETH      O 5642  -0.060   4.028   3.854 -0.7003  0.7310 -0.4024
 1314ETH      H 5643   0.209   4.057   3.924  0.1317  2.0935 -0.5135
 1314ETH     H1 5644   0.105   4.011   4.056  2.0674 -0.7018 -0.0415
 1314ETH     H2 5645   0.170   4.180   4.051 -0.7794  0.6257 -0.1371
 1314ETH     H3 5646  -0.044   4.200   3.982  0.9020  1.9669 -0.7532
 1314ETH     H4 5647   0.038   4.198   3.825 -0.3268 -0.4041  0.3610
 1314ETH     H5 5648  -0.089   3.976   3.931  1.6551 -0.0270  0.0432
 1315ETH      C 5649   1.186   1.679   0.310  0.2892 -0.0296  0.4685
 1315ETH     C1 5650   1.323   1.616   0.301 -0.7173 -0.1794  0.3678
 1315ETH      O 5651   1.357   1.530   0.408  0.3473  0.2213  0.5447
 1315ETH      H 5652   1.190   1.752   0.391 -0.2579 -0.4038  0.8375
 1315ETH     H1 5653   1.109   1.602   0.323 -2.1994  2.4336  0.9860
 1315ETH     H2 5654   1.171   1.721   0.210  0.8031 -1.4757 -0.2576
 1315ETH     H3 5655   1.319   1.558   0.207  2.4446 -1.0150  0.6360
 1315ETH     H4 5656   1.407   1.685   0.284 -1.0660  0.6762  1.9342
 1315ETH     H5 5657   1.445   1.563   0.432  1.0576  0.6710 -2.3111
 1316ETH      C 5658   2.349   2.230   2.313 -0.0400 -0.0044  0.1453
 1316ETH     C1 5659   2.256   2.327   2.245  0.7133 -0.2604  0.1039
 1316ETH      O 5660   2.311   2.461   2.262  0.3789  0.1212  0.8588
 1316ETH      H 5661   2.369   2.261   2.416 -0.2185  1.7239 -0.3127
 1316ETH     H1 5662   2.444   2.239   2.260 -0.3568  1.8928 -0.1786
 1316ETH     H2 5663   2.315   2.126   2.308 -0.0138 -0.1293  1.8089
 1316ETH     H3 5664   2.241   2.299   2.140 -1.7788 -0.7873  0.5394
 1316ETH     H4 5665   2.158   2.324   2.293  1.2451 -0.8099  1.2079
 1316ETH     H5 5666   2.252   2.523   2.216  1.0962  0.0632 -0.1548
 1317ETH      C 5667   3.913   1.837   4.099 -0.7582 -0.3476 -0.4536
 1317ETH     C1 5668   3.842   1.812   4.230 -0.3415  0.8736 -0.3067
 1317ETH      O 5669   3.750   1.909   4.265 -0.4984 -0.4449 -0.4742
 1317ETH      H 5670   4.005   1.777   4.095  0.0442  0.8359 -0.5264
 1317ETH     H1 5671   3.948   1.941   4.093  1.5403 -0.9699  0.9804
 1317ETH     H2 5672   3.856   1.807   4.010 -2.2415 -2.1777  1.0304
 1317ETH     H3 5673   3.798   1.712   4.217  0.8213  0.0952  1.3178
 1317ETH     H4 5674   3.920   1.798   4.306  0.6481  2.2287 -1.0278
 1317ETH     H5 5675   3.676   1.898   4.202 -2.0567 -1.4309  1.4045
 1318ETH      C 5676   0.672   0.918   2.541  0.4564  0.3471 -0.2461
 1318ETH     C1 5677   0.697   1.064   2.572  0.1562 -0.9581  0.8770
 1318ETH      O 5678   0.574   1.135   2.611  0.2338 -0.0718  0.5223
 1318ETH      H 5679   0.769   0.878   2.510 -0.6575 -1.8885 -1.0893
 1318ETH     H1 5680   0.607   0.908   2.453  0.1237 -1.2355  0.1546
 1318ETH     H2 5681   0.633   0.877   2.634  0.2584  0.8273 -0.1132
 1318ETH     H3 5682   0.773   1.071   2.651  1.1395 -1.7543  0.0349
 1318ETH     H4 5683   0.734   1.116   2.483  0.9130 -1.0044  1.1563
 1318ETH     H5 5684   0.510   1.132   2.537  0.4092 -1.7572  0.3968
 1319ETH      C 5685   2.546   0.599   3.000 -0.1217  0.2700 -0.6819
 1319ETH     C1 5686   2.604   0.468   3.070 -0.1322 -0.1575  0.5440
 1319ETH      O 5687   2.553   0.453   3.205  0.3049  0.0823 -0.2333
 1319ETH      H 5688   2.547   0.576   2.893  1.0775 -1.0362 -0.4219
 1319ETH     H1 5689   2.601   0.689   3.029  0.3500 -0.4540  0.7982
 1319ETH     H2 5690   2.438   0.607   3.016 -0.4761 -0.6828 -2.3911
 1319ETH     H3 5691   2.588   0.377   3.011  0.3450 -0.2485  0.5515
 1319ETH     H4 5692   2.713   0.472   3.063 -0.1368 -2.3532 -2.9485
 1319ETH     H5 5693   2.477   0.510   3.220  1.8763  2.3897 -0.5700
 1320ETH      C 5694   2.780   3.056   3.112 -0.2726  0.1779 -0.7358
 1320ETH     C1 5695   2.840   2.946   3.208 -0.2221  0.2302  0.3215
 1320ETH      O 5696   2.775   2.939   3.335 -0.6492  0.2032  0.1834
 1320ETH      H 5697   2.843   3.071   3.024 -0.3538 -2.7616 -1.3887
 1320ETH     H1 5698   2.779   3.157   3.154 -1.2003 -0.5204  1.0242
 1320ETH     H2 5699   2.673   3.036   3.097 -0.9372  0.0033  3.2541
 1320ETH     H3 5700   2.831   2.848   3.159 -0.0884  0.6490 -0.5520
 1320ETH     H4 5701   2.948   2.960   3.222  0.3745 -1.6484 -1.7783
 1320ETH     H5 5702   2.679   2.937   3.320 -0.7142  1.2956  0.3727
 1321ETH      C 5703   1.563   0.860   2.945 -0.0754 -0.2907 -0.0796
 1321ETH     C1 5704   1.709   0.862   2.996  0.2636  0.7483 -0.8555
 1321ETH      O 5705   1.784   0.957   2.926  0.0241 -0.0378 -0.1063
 1321ETH      H 5706   1.572   0.881   2.838 -2.1188 -0.1561 -0.2777
 1321ETH     H1 5707   1.521   0.948   2.996  0.1213 -0.4921  0.4329
 1321ETH     H2 5708   1.519   0.762   2.968 -0.5022  0.0952  0.7987
 1321ETH     H3 5709   1.711   0.887   3.102  0.6312  1.8744 -1.1085
 1321ETH     H4 5710   1.753   0.763   2.981 -0.3271  0.0969  1.3658
 1321ETH     H5 5711   1.781   0.919   2.836 -1.2933 -1.1012  0.3501
 1322ETH      C 5712   1.017   1.514   4.112  0.9706 -0.2481 -0.1428
 1322ETH     C1 5713   1.154   1.553   4.073 -0.8281  0.8396  0.1869
 1322ETH      O 5714   1.219   1.430   4.026  0.2094  0.0687  0.0474
 1322ETH      H 5715   0.941   1.498   4.034 -1.6104  0.4728  2.0851
 1322ETH     H1 5716   0.970   1.602   4.159 -1.9360 -1.4529 -0.5738
 1322ETH     H2 5717   1.015   1.429   4.180 -0.4867 -2.4050 -2.6857
 1322ETH     H3 5718   1.163   1.636   4.002  2.6703  1.5481  1.2660
 1322ETH     H4 5719   1.198   1.577   4.170 -2.3528 -2.3997  1.8323
 1322ETH     H5 5720   1.184   1.399   3.941  0.4762  1.7083 -0.6874
 1323ETH      C 5721   1.997   1.225   2.020  0.0819 -0.4830 -0.3600
 1323ETH     C1 5722   2.010   1.175   2.163  0.3370 -0.0479 -0.1725
 1323ETH      O 5723   2.140   1.197   2.218 -0.1841 -0.0460 -0.5573
 1323ETH      H 5724   2.036   1.328   2.012  1.4227 -0.5152  3.4298
 1323ETH     H1 5725   1.892   1.217   1.993  0.1856 -1.6962 -0.4363
 1323ETH     H2 5726   2.062   1.170   1.951 -0.5963 -0.6861 -0.8399
 1323ETH     H3 5727   1.938   1.230   2.225  1.7973  0.6248  1.0247
 1323ETH     H4 5728   1.990   1.068   2.157  1.6255 -0.2495 -1.3220
 1323ETH     H5 5729   2.134   1.177   2.313  1.6421  1.9164  0.0415
 1324ETH      C 5730   1.387   2.959   0.757  0.5909 -0.3101  0.1793
 1324ETH     C1 5731   1.287   2.842   0.747 -0.3061  0.4283 -0.3110
 1324ETH      O 5732   1.331   2.731   0.822  0.2627 -0.4189  0.0487
 1324ETH      H 5733   1.362   3.035   0.682  1.0160  0.6998  1.0285
 1324ETH     H1 5734   1.486   2.926   0.725 -0.1007 -3.7746  1.2081
 1324ETH     H2 5735   1.401   2.996   0.859  0.5072 -0.1721  0.1414
 1324ETH     H3 5736   1.189   2.861   0.793 -0.3134  0.0477 -0.1662
 1324ETH     H4 5737   1.254   2.808   0.648 -0.2148 -1.4720  0.2820
 1324ETH     H5 5738   1.302   2.657   0.766  0.4209  0.6268 -1.4710
 1325ETH      C 5739   0.079   1.897   0.303 -0.2525 -0.1470  0.2127
 1325ETH     C1 5740   0.218   1.830   0.283  0.2419  1.0530 -0.3380
 1325ETH      O 5741   0.311   1.903   0.362  0.2626 -0.0399 -0.0429
 1325ETH      H 5742   0.049   1.891   0.408 -1.6309 -1.0613 -0.2076
 1325ETH     H1 5743  -0.008   1.861   0.247 -0.7285  1.7000 -0.3026
 1325ETH     H2 5744   0.087   2.002   0.272  0.1315  0.3796  1.9816
 1325ETH     H3 5745   0.209   1.735   0.338 -2.4190  1.7242  0.5413
 1325ETH     H4 5746   0.250   1.816   0.179  0.1984 -0.0758 -0.2169
 1325ETH     H5 5747   0.286   1.890   0.456  2.9896  2.0402  1.0864
 1326ETH      C 5748   0.182   3.148   0.554  0.0322 -0.1658  0.6264
 1326ETH     C1 5749   0.118   3.026   0.488  0.6353  0.4796  0.3055
 1326ETH      O 5750   0.011   3.063   0.408  0.3778 -0.0195  0.2259
 1326ETH      H 5751   0.106   3.200   0.613  0.3811 -1.6336  2.4595
 1326ETH     H1 5752   0.203   3.222   0.476 -2.7707 -0.2938 -0.3613
 1326ETH     H2 5753   0.261   3.137   0.630  0.0625  0.4326  0.6867
 1326ETH     H3 5754   0.189   2.977   0.420 -2.2824 -0.5881 -2.1929
 1326ETH     H4 5755   0.085   2.954   0.565  0.3754  1.0985  0.7762
 1326ETH     H5 5756   0.040   3.118   0.334 -0.7174  0.7903  0.3746
 1327ETH      C 5757   3.936   2.041   2.912 -0.3082 -0.4718  0.0327
 1327ETH     C1 5758   4.032   1.925   2.909 -0.1021 -0.2468 -0.4458
 1327ETH      O 5759   4.162   1.978   2.921 -0.1839 -0.1119 -0.0957
 1327ETH      H 5760   3.960   2.108   2.829  1.8170  0.1828  1.1046
 1327ETH     H1 5761   3.946   2.090   3.010  1.8902  0.4173 -0.5787
 1327ETH     H2 5762   3.831   2.010   2.906 -0.1323 -0.7581 -2.1740
 1327ETH     H3 5763   4.028   1.861   2.998  0.2554  2.1229  1.4053
 1327ETH     H4 5764   4.018   1.863   2.820  0.5615 -1.4481  0.2688
 1327ETH     H5 5765   4.221   1.915   2.877 -1.6476 -1.1421 -0.6547
 1328ETH      C 5766   4.190   0.428   2.053  0.3971  0.1434  0.0874
 1328ETH     C1 5767   4.257   0.535   1.965  0.5700  0.1853 -0.9980
 1328ETH      O 5768   4.299   0.639   2.054  0.3759 -0.7455 -0.1159
 1328ETH      H 5769   4.261   0.379   2.121  0.7202  0.5871  0.0737
 1328ETH     H1 5770   4.165   0.343   1.988  1.2608  0.3215 -0.5085
 1328ETH     H2 5771   4.111   0.469   2.117 -0.1929 -1.3377  0.3559
 1328ETH     H3 5772   4.345   0.491   1.916  0.1044  0.4972 -2.1528
 1328ETH     H4 5773   4.195   0.576   1.885  0.3269 -2.3190 -2.1915
 1328ETH     H5 5774   4.381   0.623   2.104  0.1393  3.1811  1.8809
 1329ETH      C 5775   3.753   2.168   1.797 -0.1882 -0.0620 -0.6048
 1329ETH     C1 5776   3.620   2.139   1.880 -0.3201 -0.7189  0.5086
 1329ETH      O 5777   3.513   2.211   1.819 -0.0153 -0.0710 -0.5112
 1329ETH      H 5778   3.778   2.275   1.788 -0.0956  0.0952  1.2041
 1329ETH     H1 5779   3.743   2.125   1.697  0.1016 -3.9666  0.8555
 1329ETH     H2 5780   3.838   2.126   1.853 -0.7759 -1.0019 -0.4046
 1329ETH     H3 5781   3.606   2.030   1.879 -1.1067 -0.6276  0.7273
 1329ETH     H4 5782   3.624   2.175   1.983 -2.2129  1.3859 -0.0735
 1329ETH     H5 5783   3.480   2.154   1.747  3.4593  0.5865 -2.8668
 1330ETH      C 5784   3.785   1.820   0.406 -0.0020 -0.4198  0.3212
 1330ETH     C1 5785   3.802   1.937   0.494 -0.2144  0.0372  0.1388
 1330ETH      O 5786   3.676   2.011   0.480 -0.0827  0.0963 -0.0480
 1330ETH      H 5787   3.869   1.751   0.392 -0.7404 -1.1129 -0.9388
 1330ETH     H1 5788   3.769   1.862   0.306  1.5028 -0.9020 -0.1435
 1330ETH     H2 5789   3.700   1.752   0.422 -1.5962  0.5054 -3.2172
 1330ETH     H3 5790   3.821   1.902   0.597 -0.1764  2.8154  1.1789
 1330ETH     H4 5791   3.891   1.989   0.455  0.0180  0.8954  1.7017
 1330ETH     H5 5792   3.699   2.102   0.507  1.5804 -0.5407  0.8008
 1331ETH      C 5793   1.493   1.263   0.660 -0.3707 -0.5429 -0.3018
 1331ETH     C1 5794   1.393   1.205   0.748  0.0149 -0.9191 -0.2856
 1331ETH      O 5795   1.386   1.060   0.735  0.1331 -1.0127 -0.2449
 1331ETH      H 5796   1.501   1.372   0.668  0.8989 -0.3933 -2.7634
 1331ETH     H1 5797   1.462   1.244   0.556 -0.4232  1.3926 -0.6843
 1331ETH     H2 5798   1.596   1.228   0.665 -0.4265 -0.6322  0.2617
 1331ETH     H3 5799   1.421   1.229   0.851 -0.4400 -1.1053 -0.1159
 1331ETH     H4 5800   1.292   1.245   0.730  0.0198 -0.7514  0.0653
 1331ETH     H5 5801   1.301   1.037   0.776 -0.4932 -0.1395 -1.0160
 1332ETH      C 5802   3.532   1.969   3.898 -0.7236 -0.0135  0.0005
 1332ETH     C1 5803   3.537   1.814   3.893  0.7414 -0.6281  0.5135
 1332ETH      O 5804   3.536   1.768   4.032 -0.4265 -0.2056  0.0916
 1332ETH      H 5805   3.605   2.010   3.969 -0.5629 -1.8675  0.9761
 1332ETH     H1 5806   3.433   1.997   3.934  0.0424  1.2670  1.2150
 1332ETH     H2 5807   3.541   2.012   3.798  1.0924 -1.7724 -0.6540
 1332ETH     H3 5808   3.445   1.780   3.844  0.5932  0.7617 -0.2136
 1332ETH     H4 5809   3.628   1.787   3.837  1.9559  0.7071  1.7640
 1332ETH     H5 5810   3.532   1.671   4.026 -0.9541 -0.1539 -0.4674
 1333ETH      C 5811   1.280   0.622   1.926 -0.0556 -0.4252 -0.3878
 1333ETH     C1 5812   1.428   0.596   1.920 -0.3488 -0.1890  0.5460
 1333ETH      O 5813   1.475   0.670   1.809  0.1528 -0.3294 -0.5990
 1333ETH      H 5814   1.254   0.723   1.962 -0.7295 -0.6297 -0.2848
 1333ETH     H1 5815   1.248   0.547   2.000  1.5381 -1.5884 -0.8208
 1333ETH     H2 5816   1.228   0.599   1.833 -0.7342 -0.7089  0.0513
 1333ETH     H3 5817   1.468   0.622   2.019 -1.1552  0.7690  0.6310
 1333ETH     H4 5818   1.445   0.490   1.900 -2.4604 -0.3913 -0.3879
 1333ETH     H5 5819   1.561   0.707   1.837  0.7386 -2.5704  0.8416
 1334ETH      C 5820   0.710   0.211   1.783  0.1257 -0.1599  0.3552
 1334ETH     C1 5821   0.561   0.178   1.758  0.9192 -0.0211  0.1037
 1334ETH      O 5822   0.535   0.040   1.753 -0.1177 -0.0910  0.1220
 1334ETH      H 5823   0.759   0.207   1.685  3.2695  1.4881  1.7288
 1334ETH     H1 5824   0.762   0.141   1.850  1.9655  1.2293  0.4391
 1334ETH     H2 5825   0.725   0.314   1.817  0.7567 -0.5411  1.2717
 1334ETH     H3 5826   0.505   0.215   1.845  0.3815  0.2931 -0.3706
 1334ETH     H4 5827   0.531   0.227   1.665  2.0709 -0.4960 -0.5380
 1334ETH     H5 5828   0.463   0.024   1.816 -1.7753  0.0675 -1.6578
 1335ETH      C 5829   0.449   0.751   0.343 -0.5713  0.3313 -0.5228
 1335ETH     C1 5830   0.510   0.796   0.206 -0.8348  0.2050  0.8008
 1335ETH      O 5831   0.572   0.920   0.229  0.3609 -0.6384  0.0038
 1335ETH      H 5832   0.389   0.660   0.329 -1.4086  0.6968  0.5273
 1335ETH     H1 5833   0.379   0.827   0.381  1.1958  1.3413  0.8733
 1335ETH     H2 5834   0.521   0.755   0.425 -0.4816  2.1300 -0.6552
 1335ETH     H3 5835   0.572   0.715   0.165 -4.1072 -1.6025 -0.9972
 1335ETH     H4 5836   0.424   0.794   0.138  0.5383  1.1731 -1.0562
 1335ETH     H5 5837   0.577   0.973   0.148  2.4770  1.3493  1.3037
 1336ETH      C 5838   3.020   2.005   1.256 -0.3063 -0.5781  0.1720
 1336ETH     C1 5839   3.023   2.160   1.235 -0.1476 -0.6697 -0.0411
 1336ETH      O 5840   3.036   2.189   1.093  0.0507  0.3109  0.4411
 1336ETH      H 5841   3.113   1.959   1.221 -0.1742 -0.2731  0.1226
 1336ETH     H1 5842   2.933   1.965   1.201  0.3332 -1.0013 -0.5640
 1336ETH     H2 5843   3.013   1.972   1.360  2.6009  0.8520  0.9041
 1336ETH     H3 5844   2.927   2.202   1.267  0.1541 -0.8906  1.2154
 1336ETH     H4 5845   3.106   2.209   1.287  0.2459 -0.1725 -1.0931
 1336ETH     H5 5846   2.952   2.167   1.049 -0.5997  1.6897  0.9302
 1337ETH      C 5847   1.543   0.126   1.240  0.3650 -0.7114  0.9361
 1337ETH     C1 5848   1.399   0.113   1.296  0.0325  1.0463  0.1966
 1337ETH      O 5849   1.308   0.081   1.195 -0.0300 -0.1067  0.3975
 1337ETH      H 5850   1.547   0.204   1.163  3.4422 -0.7710  0.8947
 1337ETH     H1 5851   1.585   0.032   1.201  1.6336 -0.0855  0.7305
 1337ETH     H2 5852   1.614   0.169   1.312 -1.2246  0.6926  1.7217
 1337ETH     H3 5853   1.394   0.039   1.376 -0.8350  1.4023  0.4851
 1337ETH     H4 5854   1.381   0.212   1.341 -0.3927  0.3957  1.4847
 1337ETH     H5 5855   1.223   0.088   1.241 -0.4785 -4.7978  0.7484
 1338ETH      C 5856   3.736   2.468   3.551  0.0378 -0.0732  1.0692
 1338ETH     C1 5857   3.780   2.392   3.423  0.3202 -0.7078  0.0884
 1338ETH      O 5858   3.810   2.259   3.467  0.3701  0.1198 -0.2278
 1338ETH      H 5859   3.820   2.529   3.586  0.9855  0.9846 -2.6522
 1338ETH     H1 5860   3.708   2.396   3.630  0.0431 -2.3958 -0.9408
 1338ETH     H2 5861   3.657   2.543   3.539 -0.6347 -0.9663 -0.2566
 1338ETH     H3 5862   3.698   2.403   3.351 -0.2987  4.1818  1.1613
 1338ETH     H4 5863   3.866   2.447   3.383  0.0021  0.0176  0.3837
 1338ETH     H5 5864   3.899   2.263   3.505  0.4210 -0.5905 -0.2588
 1339ETH      C 5865   0.199   1.460   0.676  0.0015 -0.1659 -0.4348
 1339ETH     C1 5866   0.199   1.552   0.785  0.9128  0.5576  0.6392
 1339ETH      O 5867   0.311   1.631   0.777 -0.4500  0.1568 -0.0308
 1339ETH      H 5868   0.200   1.513   0.580 -0.0640 -0.1241 -0.4124
 1339ETH     H1 5869   0.108   1.398   0.679  0.0170 -0.3361 -2.3848
 1339ETH     H2 5870   0.287   1.395   0.676  0.0683 -0.1256 -2.2009
 1339ETH     H3 5871   0.111   1.618   0.788  0.9270  0.6448 -0.3142
 1339ETH     H4 5872   0.186   1.483   0.869 -0.2379 -3.5804 -2.5928
 1339ETH     H5 5873   0.295   1.712   0.828 -0.7067 -0.8710  1.5682
 1340ETH      C 5874   2.938   1.545   2.060 -0.8693 -0.2918  0.7225
 1340ETH     C1 5875   2.854   1.668   2.015 -0.7138  0.8155 -0.1031
 1340ETH      O 5876   2.898   1.777   2.092  0.2382 -0.1516 -0.2030
 1340ETH      H 5877   2.929   1.515   2.165 -0.6709  0.9393  1.0972
 1340ETH     H1 5878   3.044   1.562   2.041 -0.8653 -1.8449 -0.9312
 1340ETH     H2 5879   2.930   1.458   1.993  2.3672  0.5686 -0.9773
 1340ETH     H3 5880   2.878   1.691   1.910 -2.6229 -0.5787 -0.9097
 1340ETH     H4 5881   2.747   1.644   2.018 -0.7934  0.8458 -1.6664
 1340ETH     H5 5882   2.873   1.759   2.185 -0.1643 -2.2666 -0.6718
 1341ETH      C 5883   1.257   3.217   1.599 -0.0053 -0.4906  0.4139
 1341ETH     C1 5884   1.127   3.307   1.631  0.1379  0.2670  0.1910
 1341ETH      O 5885   1.081   3.388   1.518  0.3518  0.3208 -0.5391
 1341ETH      H 5886   1.279   3.148   1.681  1.9664 -1.5898 -0.9696
 1341ETH     H1 5887   1.342   3.278   1.565 -0.2681 -0.6410 -0.5116
 1341ETH     H2 5888   1.237   3.145   1.520  1.6626  0.2440 -0.7405
 1341ETH     H3 5889   1.044   3.238   1.654  0.1692 -0.1541 -0.9115
 1341ETH     H4 5890   1.137   3.377   1.715 -5.2820  0.1175  1.3692
 1341ETH     H5 5891   1.016   3.446   1.561 -1.6504 -2.8394  1.1551
 1342ETH      C 5892   3.029   3.846   1.562 -0.5741 -0.2364  0.2926
 1342ETH     C1 5893   3.173   3.798   1.578 -0.2740  0.1041 -0.4187
 1342ETH      O 5894   3.251   3.817   1.456  0.1543  0.0494 -0.1514
 1342ETH      H 5895   3.025   3.948   1.524 -3.7799 -0.6837 -0.9076
 1342ETH     H1 5896   2.968   3.829   1.651  0.9958 -2.3118  1.0609
 1342ETH     H2 5897   2.979   3.795   1.478 -0.1545  2.5288 -1.7773
 1342ETH     H3 5898   3.217   3.850   1.664 -0.1247  0.3061 -0.6147
 1342ETH     H4 5899   3.164   3.693   1.608 -0.9219  0.2453 -0.1026
 1342ETH     H5 5900   3.342   3.834   1.487 -0.4704  0.4289  1.5934
 1343ETH      C 5901   2.905   3.310   4.234  0.4499  0.4008 -0.1035
 1343ETH     C1 5902   2.951   3.412   4.339  1.0848 -0.1225 -0.0320
 1343ETH      O 5903   2.855   3.419   4.443 -0.1274  0.1338  0.1620
 1343ETH      H 5904   2.822   3.345   4.171  1.0767  0.0573 -1.1533
 1343ETH     H1 5905   2.865   3.224   4.289  0.0077  0.9014  0.3630
 1343ETH     H2 5906   2.991   3.281   4.172 -0.2774  2.5808 -2.2890
 1343ETH     H3 5907   3.050   3.374   4.365  1.5216 -0.0182 -1.4442
 1343ETH     H4 5908   2.956   3.508   4.287 -0.6893 -0.6008 -1.1720
 1343ETH     H5 5909   2.771   3.432   4.397  0.4003  0.7064 -0.6630
 1344ETH      C 5910   1.254   3.951   1.330  0.1641  0.3365 -0.1057
 1344ETH     C1 5911   1.253   3.802   1.291  0.4736 -0.0360  0.4612
 1344ETH      O 5912   1.352   3.743   1.374 -0.2855 -0.4125  0.5096
 1344ETH      H 5913   1.233   3.960   1.437  0.3593 -0.4493  0.0038
 1344ETH     H1 5914   1.178   4.019   1.289  1.9129  3.4505  1.4568
 1344ETH     H2 5915   1.354   3.987   1.303  1.9717 -3.8860  0.2125
 1344ETH     H3 5916   1.158   3.756   1.321 -0.0763 -0.3477 -1.5988
 1344ETH     H4 5917   1.262   3.784   1.184  0.0541 -1.4486  0.6455
 1344ETH     H5 5918   1.346   3.647   1.364 -2.4671 -0.4769  1.8896
 1345ETH      C 5919   4.190   3.474   2.255  0.3517 -0.4675  0.2386
 1345ETH     C1 5920   4.066   3.397   2.259  0.2638  0.1784  0.7399
 1345ETH      O 5921   4.087   3.254   2.271 -0.3911 -0.4294 -0.3657
 1345ETH      H 5922   4.232   3.449   2.353 -1.9185 -2.9101  0.7159
 1345ETH     H1 5923   4.179   3.583   2.249  2.3906 -0.2841 -1.0155
 1345ETH     H2 5924   4.266   3.440   2.184 -0.6479  3.6934 -3.2402
 1345ETH     H3 5925   3.996   3.434   2.335  0.3665  0.0784  0.8851
 1345ETH     H4 5926   4.015   3.417   2.164 -2.7649 -1.8922  1.7712
 1345ETH     H5 5927   4.171   3.238   2.318 -1.3375 -2.9036  0.6433
 1346ETH      C 5928   0.062   1.375   1.312  0.2080 -0.4517 -0.2481
 1346ETH     C1 5929  -0.061   1.301   1.252  0.0810 -0.5065  0.0000
 1346ETH      O 5930  -0.125   1.215   1.339 -0.3181  0.3187 -0.7302
 1346ETH      H 5931   0.151   1.312   1.312  2.0240  1.9587 -0.7966
 1346ETH     H1 5932   0.032   1.406   1.413 -2.1105  0.9410 -1.2572
 1346ETH     H2 5933   0.092   1.468   1.262  2.0436  0.0417  1.6260
 1346ETH     H3 5934  -0.128   1.383   1.222  0.0647 -0.4107  0.2941
 1346ETH     H4 5935  -0.033   1.252   1.158  0.4548  2.6629 -1.6670
 1346ETH     H5 5936  -0.210   1.199   1.296  0.4283  0.6000 -2.3911
 1347ETH      C 5937   0.660   0.432   4.160  0.0900  0.4709 -0.6467
 1347ETH     C1 5938   0.772   0.538   4.192  0.2687 -0.3142  0.2696
 1347ETH      O 5939   0.865   0.533   4.086 -0.7337  0.2550  0.0712
 1347ETH      H 5940   0.589   0.448   4.078 -0.4136 -0.8746 -0.4974
 1347ETH     H1 5941   0.603   0.443   4.253 -1.2601  0.1020 -1.4004
 1347ETH     H2 5942   0.689   0.326   4.154 -2.5214 -0.2825 -1.1101
 1347ETH     H3 5943   0.720   0.634   4.207  0.6025 -0.1653  0.4897
 1347ETH     H4 5944   0.811   0.511   4.291 -0.4940 -1.0320  0.3816
 1347ETH     H5 5945   0.938   0.594   4.105  1.5153 -2.6199  1.5925
 1348ETH      C 5946   0.204   0.640   1.008 -0.0997 -0.1922 -0.4230
 1348ETH     C1 5947   0.122   0.543   1.091  1.3140 -0.2499 -0.1460
 1348ETH      O 5948   0.086   0.436   1.008 -0.6944 -0.6423  0.1172
 1348ETH      H 5949   0.244   0.719   1.072 -2.4939 -0.8396  2.0649
 1348ETH     H1 5950   0.148   0.690   0.927 -0.6690  0.1876  0.1910
 1348ETH     H2 5951   0.289   0.584   0.969 -2.3586 -3.7760 -0.6924
 1348ETH     H3 5952   0.186   0.513   1.175  0.2415 -0.1673  0.7174
 1348ETH     H4 5953   0.029   0.586   1.130  0.8461 -1.0271 -0.3910
 1348ETH     H5 5954   0.059   0.468   0.920  1.5857 -0.8489 -0.7364
 1349ETH      C 5955   4.165   1.128   4.153 -0.6651 -0.8587 -0.2015
 1349ETH     C1 5956   4.036   1.121   4.227  0.6125 -0.3780  0.3451
 1349ETH      O 5957   3.946   1.238   4.195 -0.5531  0.5635  0.2923
 1349ETH      H 5958   4.230   1.210   4.187 -2.2182 -0.7710  2.9415
 1349ETH     H1 5959   4.161   1.134   4.044  2.3263  1.4728 -0.3347
 1349ETH     H2 5960   4.225   1.037   4.167  1.4202  0.5558  0.7589
 1349ETH     H3 5961   3.990   1.030   4.186  1.3729  0.7982 -3.5536
 1349ETH     H4 5962   4.049   1.125   4.336  0.7728  1.3334  0.2976
 1349ETH     H5 5963   3.861   1.202   4.165 -0.3953  0.7908 -0.4214
 1350ETH      C 5964   1.735   1.185   1.694  0.5050  0.5628  0.6738
 1350ETH     C1 5965   1.764   1.029   1.689 -0.1380  0.1856  0.0782
 1350ETH      O 5966   1.874   1.009   1.602 -0.1005 -0.6981 -0.1345
 1350ETH      H 5967   1.662   1.199   1.613  0.2127 -1.2275  0.5852
 1350ETH     H1 5968   1.815   1.257   1.674 -2.2131  4.0680  1.4449
 1350ETH     H2 5969   1.700   1.210   1.795 -0.6237 -2.0396  0.9972
 1350ETH     H3 5970   1.801   0.999   1.788  3.1058  1.3116 -0.6506
 1350ETH     H4 5971   1.680   0.971   1.651 -0.9698  0.2043  1.7957
 1350ETH     H5 5972   1.869   1.071   1.528  1.4850 -0.7796 -0.3330
 1351ETH      C 5973   3.130   0.533   1.542 -0.2245  0.2144  0.2849
 1351ETH     C1 5974   3.022   0.591   1.446 -0.3695  0.2576 -0.3098
 1351ETH      O 5975   2.915   0.639   1.520 -0.1209 -0.3475 -0.0662
 1351ETH      H 5976   3.208   0.489   1.479 -0.4382 -0.3496  0.4012
 1351ETH     H1 5977   3.094   0.451   1.606  0.4332 -1.0850 -0.9607
 1351ETH     H2 5978   3.183   0.607   1.603  1.7586 -1.6651  0.9531
 1351ETH     H3 5979   3.058   0.675   1.386  1.7144 -0.0786  0.3846
 1351ETH     H4 5980   2.987   0.517   1.372  2.1098  0.0394 -1.3439
 1351ETH     H5 5981   2.948   0.656   1.610 -0.4558 -0.1171  0.0141
 1352ETH      C 5982   3.600   0.724   0.623  0.1768  0.2515 -0.2389
 1352ETH     C1 5983   3.662   0.603   0.548  0.7917  0.6358 -0.4980
 1352ETH      O 5984   3.718   0.646   0.428 -0.5578  0.1807 -0.0373
 1352ETH      H 5985   3.515   0.771   0.575  0.5391 -0.0927 -1.2381
 1352ETH     H1 5986   3.678   0.797   0.648  0.9672 -0.0945 -1.6105
 1352ETH     H2 5987   3.563   0.678   0.716  1.0203 -0.1107 -0.0708
 1352ETH     H3 5988   3.738   0.556   0.611 -0.0467 -1.0119 -0.6748
 1352ETH     H4 5989   3.589   0.526   0.524  1.7131  0.1306 -1.7892
 1352ETH     H5 5990   3.746   0.561   0.391 -2.0399 -1.1684  1.7611
 1353ETH      C 5991   2.458   0.035   0.159  0.4154  0.1225 -0.2650
 1353ETH     C1 5992   2.356  -0.029   0.069  0.6463  0.2166 -0.0941
 1353ETH      O 5993   2.234   0.041   0.083  0.4657  0.1303  0.2442
 1353ETH      H 5994   2.436   0.038   0.266 -1.2422 -0.2701 -0.5706
 1353ETH     H1 5995   2.483   0.134   0.119 -0.6054  0.2095 -0.7318
 1353ETH     H2 5996   2.553  -0.018   0.146  0.1363 -0.2292 -0.9152
 1353ETH     H3 5997   2.396  -0.022  -0.033  0.8680 -1.2103 -0.1187
 1353ETH     H4 5998   2.345  -0.133   0.101  1.8537 -0.0099 -0.3825
 1353ETH     H5 5999   2.168  -0.015   0.040  0.9584  0.5361 -1.0859
 1354ETH      C 6000   2.117   3.878   1.338  0.6245  0.3249  0.4811
 1354ETH     C1 6001   2.145   3.727   1.371 -0.9521  0.8329 -0.1295
 1354ETH      O 6002   2.163   3.645   1.261  0.5003  0.0564 -0.0493
 1354ETH      H 6003   2.020   3.892   1.290  0.9198  0.0963 -0.1903
 1354ETH     H1 6004   2.194   3.914   1.270 -1.5001 -0.7001 -2.6844
 1354ETH     H2 6005   2.115   3.939   1.429  2.6087  1.0103  0.1233
 1354ETH     H3 6006   2.227   3.729   1.443 -0.6780  2.6276 -0.4499
 1354ETH     H4 6007   2.071   3.692   1.444  0.3716 -3.5032 -0.5584
 1354ETH     H5 6008   2.108   3.565   1.259 -1.9026  1.6024 -1.9839
 1355ETH      C 6009   0.861   1.306   0.690 -0.2830 -1.1468 -0.4194
 1355ETH     C1 6010   0.716   1.259   0.728 -0.7254 -0.3896  0.6332
 1355ETH      O 6011   0.655   1.222   0.603 -0.2225 -0.1744  0.0062
 1355ETH      H 6012   0.866   1.416   0.696 -1.6876 -0.9208 -2.3831
 1355ETH     H1 6013   0.889   1.290   0.585  0.6615 -0.4920 -0.2831
 1355ETH     H2 6014   0.937   1.252   0.747  1.8325  0.5244 -1.5181
 1355ETH     H3 6015   0.728   1.173   0.796  0.8938 -1.5659 -1.0346
 1355ETH     H4 6016   0.658   1.338   0.776  1.1567  2.6622 -1.7281
 1355ETH     H5 6017   0.643   1.305   0.554 -3.8173 -0.4758  0.1226
 1356ETH      C 6018   3.502   2.187   4.207  0.5563 -0.0927 -0.3350
 1356ETH     C1 6019   3.453   2.319   4.256 -0.7619  0.6737 -0.4258
 1356ETH      O 6020   3.316   2.317   4.268 -0.1112  0.0525 -0.1332
 1356ETH      H 6021   3.461   2.153   4.110 -1.2626 -0.9075  0.6629
 1356ETH     H1 6022   3.484   2.113   4.286 -1.2298  1.2854  0.6413
 1356ETH     H2 6023   3.608   2.207   4.192  0.4942 -0.1766 -0.9243
 1356ETH     H3 6024   3.493   2.337   4.357 -0.4952 -0.7355 -0.2641
 1356ETH     H4 6025   3.485   2.406   4.197  0.2834  0.8747  0.4041
 1356ETH     H5 6026   3.303   2.293   4.361  0.6132  0.4993  0.0927
 1357ETH      C 6027   3.604   1.586   2.015 -0.1360  0.3132 -0.1252
 1357ETH     C1 6028   3.649   1.716   2.072  0.0591 -0.1192 -0.6351
 1357ETH      O 6029   3.728   1.775   1.967 -0.1443 -0.0599  0.1736
 1357ETH      H 6030   3.566   1.607   1.914  2.2342  2.8641 -0.6174
 1357ETH     H1 6031   3.519   1.554   2.077  0.1817  2.6439  1.6293
 1357ETH     H2 6032   3.689   1.517   2.013  1.7633  2.4795  1.3817
 1357ETH     H3 6033   3.564   1.783   2.095 -0.4625 -0.6309 -1.0409
 1357ETH     H4 6034   3.706   1.693   2.162 -0.2690 -0.1414 -0.4311
 1357ETH     H5 6035   3.779   1.851   2.000  0.5678 -1.4653  2.5106
 1358ETH      C 6036   0.577   2.147   0.731 -0.3021 -0.5993 -0.5315
 1358ETH     C1 6037   0.613   2.276   0.650 -0.2154 -0.3539 -0.1171
 1358ETH      O 6038   0.755   2.299   0.641  0.3376 -0.0827 -0.2119
 1358ETH      H 6039   0.617   2.153   0.833 -0.5379 -0.7991 -0.4258
 1358ETH     H1 6040   0.634   2.065   0.686  1.2602  0.2482 -0.1635
 1358ETH     H2 6041   0.469   2.131   0.738 -0.9604  2.2177 -2.7043
 1358ETH     H3 6042   0.562   2.278   0.552 -0.5545 -0.4363  0.0542
 1358ETH     H4 6043   0.570   2.363   0.701 -0.2617 -0.2198 -0.3802
 1358ETH     H5 6044   0.771   2.352   0.561  0.0505 -0.7397 -0.7155
 1359ETH      C 6045   1.418   1.200   3.731 -0.5973 -0.0568  0.3489
 1359ETH     C1 6046   1.437   1.353   3.725 -0.1143  0.1733 -0.0789
 1359ETH      O 6047   1.335   1.411   3.643  0.3058  0.0740 -0.2189
 1359ETH      H 6048   1.312   1.175   3.745 -0.6687  0.2996  0.4503
 1359ETH     H1 6049   1.467   1.149   3.815  2.1462  0.4976 -0.8082
 1359ETH     H2 6050   1.442   1.155   3.634 -1.5608  0.0784  0.0314
 1359ETH     H3 6051   1.433   1.398   3.825 -0.3656 -0.9238  0.4205
 1359ETH     H4 6052   1.538   1.369   3.684  0.5020  0.2865  1.4119
 1359ETH     H5 6053   1.264   1.433   3.706 -0.4703  3.7566 -2.0937
 1360ETH      C 6054   3.425   0.573   3.036 -0.3586  0.0960  0.3687
 1360ETH     C1 6055   3.307   0.553   2.951  0.2633  0.2073  0.3268
 1360ETH      O 6056   3.324   0.424   2.887  0.3057  0.3282  0.1021
 1360ETH      H 6057   3.509   0.569   2.965 -0.6131 -2.1252  0.1283
 1360ETH     H1 6058   3.438   0.485   3.099 -0.6269  0.3528  0.7819
 1360ETH     H2 6059   3.418   0.667   3.092 -0.5933  1.2016 -1.4336
 1360ETH     H3 6060   3.211   0.560   3.002  0.0528  0.0025 -0.0375
 1360ETH     H4 6061   3.305   0.632   2.875  2.3050 -1.0847 -1.1926
 1360ETH     H5 6062   3.321   0.352   2.952  2.0846 -0.4767 -0.6481
 1361ETH      C 6063   4.145   2.223   2.492  0.5366 -0.0585  0.4464
 1361ETH     C1 6064   4.230   2.149   2.590  0.2938  0.7195  0.2292
 1361ETH      O 6065   4.227   2.017   2.553  0.4509  0.0297 -0.4079
 1361ETH      H 6066   4.058   2.164   2.462  2.0767 -1.3110 -1.9023
 1361ETH     H1 6067   4.197   2.236   2.396  0.3807 -0.0461  0.3638
 1361ETH     H2 6068   4.123   2.326   2.523 -0.4066 -0.2955  0.5916
 1361ETH     H3 6069   4.328   2.197   2.602 -0.7101  2.3839  2.5589
 1361ETH     H4 6070   4.192   2.159   2.692  0.8234 -2.7293  0.9073
 1361ETH     H5 6071   4.277   1.967   2.620 -0.4472 -1.2937 -0.6723
 1362ETH      C 6072   2.202   1.961   4.195 -0.5395 -0.0118  0.4517
 1362ETH     C1 6073   2.120   1.830   4.198 -0.2339  0.2554 -0.3283
 1362ETH      O 6074   2.016   1.852   4.302 -0.6063  0.5774 -0.1001
 1362ETH      H 6075   2.143   2.049   4.223  2.8493  2.0844  1.5250
 1362ETH     H1 6076   2.238   1.968   4.092 -1.7768  0.6122  0.0364
 1362ETH     H2 6077   2.283   1.964   4.268 -2.2969  2.4045  2.4818
 1362ETH     H3 6078   2.079   1.812   4.097  1.2064  0.2787 -0.9328
 1362ETH     H4 6079   2.187   1.747   4.219 -0.1359  0.4196  0.0197
 1362ETH     H5 6080   2.072   1.830   4.378 -0.5111 -1.5011 -0.6969
 1363ETH      C 6081   2.655   1.248   2.250 -0.1574  0.6219 -0.0669
 1363ETH     C1 6082   2.661   1.361   2.354 -0.0663 -0.0997 -0.3545
 1363ETH      O 6083   2.530   1.373   2.414 -0.2539 -0.7925  0.2129
 1363ETH      H 6084   2.573   1.252   2.178 -0.7271 -1.1454  0.4355
 1363ETH     H1 6085   2.656   1.150   2.299 -0.6863  0.1441 -0.9865
 1363ETH     H2 6086   2.747   1.242   2.190  0.8283  0.1659  1.4220
 1363ETH     H3 6087   2.741   1.342   2.426  0.3413  1.0443 -0.4809
 1363ETH     H4 6088   2.684   1.460   2.314  0.4680  0.0483  0.3012
 1363ETH     H5 6089   2.465   1.350   2.346 -0.6890 -1.2062  0.7585
 1364ETH      C 6090   2.037   2.322   1.434 -0.0057 -0.2772 -0.0352
 1364ETH     C1 6091   1.928   2.217   1.472  0.2421 -0.7593  1.8209
 1364ETH      O 6092   1.863   2.172   1.351  0.3632 -0.0828 -0.0680
 1364ETH      H 6093   2.120   2.316   1.506 -1.7056 -1.3777  1.9287
 1364ETH     H1 6094   1.989   2.421   1.437 -2.1479 -1.2198 -0.9713
 1364ETH     H2 6095   2.078   2.315   1.333 -1.0440 -1.0459 -0.4191
 1364ETH     H3 6096   1.977   2.131   1.520 -0.4226 -2.2558 -0.0530
 1364ETH     H4 6097   1.863   2.264   1.547  1.3463  0.5437  2.0063
 1364ETH     H5 6098   1.838   2.253   1.303  1.2882  0.2389 -0.0352
 1365ETH      C 6099   0.186   2.349   0.283 -0.0791  0.6576 -0.5843
 1365ETH     C1 6100   0.330   2.292   0.278  0.3162  0.5915  0.4324
 1365ETH      O 6101   0.378   2.267   0.139  0.2260 -0.4503  0.1999
 1365ETH      H 6102   0.144   2.342   0.384  0.8575 -2.9166 -0.2988
 1365ETH     H1 6103   0.124   2.287   0.218 -0.8020 -1.7532  2.1579
 1365ETH     H2 6104   0.192   2.453   0.250 -0.1112  1.2884  1.2826
 1365ETH     H3 6105   0.391   2.367   0.329 -0.3461  0.3994  1.5531
 1365ETH     H4 6106   0.339   2.199   0.336  0.7951 -1.5934 -2.8470
 1365ETH     H5 6107   0.425   2.182   0.133  0.4291 -0.2794 -0.9116
 1366ETH      C 6108   3.619   2.755   3.236  0.6759  0.8095 -0.0788
 1366ETH     C1 6109   3.497   2.767   3.323 -0.1779  0.3385  0.0996
 1366ETH      O 6110   3.444   2.900   3.324  0.2462  0.9279  0.0081
 1366ETH      H 6111   3.683   2.840   3.262  0.7442  0.2277  1.8322
 1366ETH     H1 6112   3.593   2.772   3.131  1.6118  1.9610 -0.1466
 1366ETH     H2 6113   3.666   2.658   3.256 -0.3757 -0.0153 -1.3605
 1366ETH     H3 6114   3.413   2.706   3.285 -1.0967  1.8560 -0.3976
 1366ETH     H4 6115   3.522   2.738   3.426  0.1434  1.8418  0.4635
 1366ETH     H5 6116   3.504   2.952   3.380  3.3835 -1.7416 -0.5729
 1367ETH      C 6117   2.475   1.633   4.065 -0.1422  0.5240 -0.2743
 1367ETH     C1 6118   2.483   1.598   4.213 -0.1611 -1.2033 -0.7095
 1367ETH      O 6119   2.618   1.584   4.258 -0.2157 -0.0437 -0.4563
 1367ETH      H 6120   2.540   1.718   4.040 -1.3417  1.3836 -0.5363
 1367ETH     H1 6121   2.371   1.653   4.037  0.1860  2.7465 -0.0720
 1367ETH     H2 6122   2.507   1.548   4.003 -1.4457 -0.5573  0.4786
 1367ETH     H3 6123   2.425   1.666   4.277  0.5433 -0.6773 -0.6193
 1367ETH     H4 6124   2.437   1.499   4.224  0.4478 -1.4217 -0.1003
 1367ETH     H5 6125   2.659   1.672   4.264 -0.6990  0.1667  4.7916
 1368ETH      C 6126   0.711   0.875   1.152  0.7234 -0.1194 -1.1961
 1368ETH     C1 6127   0.670   0.756   1.070 -0.2308 -0.1537  0.6379
 1368ETH      O 6128   0.540   0.709   1.108  0.3164 -0.2605 -0.0488
 1368ETH      H 6129   0.817   0.895   1.134  1.7588 -2.3638  1.5338
 1368ETH     H1 6130   0.698   0.856   1.259 -1.5809  3.9727 -0.5396
 1368ETH     H2 6131   0.653   0.960   1.114 -0.4920 -0.9874 -1.3487
 1368ETH     H3 6132   0.658   0.798   0.969 -0.0143  0.5344  0.8939
 1368ETH     H4 6133   0.744   0.676   1.073 -0.1210 -0.1572 -1.1592
 1368ETH     H5 6134   0.471   0.737   1.045  1.5291  0.2518 -1.1933
 1369ETH      C 6135   3.603   3.147   0.879 -0.3320  0.2110 -0.6385
 1369ETH     C1 6136   3.480   3.079   0.938  0.0766 -0.0688 -0.2049
 1369ETH      O 6137   3.518   2.951   0.989  0.0441  0.1131  0.4121
 1369ETH      H 6138   3.644   3.067   0.816  2.0698 -2.9619  4.2688
 1369ETH     H1 6139   3.679   3.168   0.956  1.8101  1.2717 -2.9235
 1369ETH     H2 6140   3.589   3.245   0.833  0.5827  0.5026 -0.3249
 1369ETH     H3 6141   3.442   3.138   1.023 -0.8969  0.4071 -0.9519
 1369ETH     H4 6142   3.404   3.072   0.859 -1.0791  2.1572  0.6020
 1369ETH     H5 6143   3.611   2.935   0.967  0.6370  0.9627  2.1057
 1370ETH      C 6144   4.186   1.968   3.296 -0.1678  0.4523 -0.1162
 1370ETH     C1 6145   4.181   1.818   3.236 -0.2978 -0.1075 -0.0784
 1370ETH      O 6146   4.222   1.723   3.327  0.2398 -0.2874  0.2772
 1370ETH      H 6147   4.142   2.034   3.220 -2.7201 -2.0003 -0.9436
 1370ETH     H1 6148   4.288   1.996   3.323 -0.5191  0.2289  1.5560
 1370ETH     H2 6149   4.131   1.977   3.390  0.3502 -0.6121  0.3001
 1370ETH     H3 6150   4.074   1.805   3.215 -0.5719  1.9633 -0.1675
 1370ETH     H4 6151   4.230   1.816   3.138 -2.6554 -0.4387 -1.3234
 1370ETH     H5 6152   4.190   1.747   3.415 -0.0063 -1.0292  0.3955
 1371ETH      C 6153   2.495   3.452   0.974 -0.2862  0.3407  0.0709
 1371ETH     C1 6154   2.588   3.562   0.979 -0.1509  0.3313 -0.1439
 1371ETH      O 6155   2.653   3.555   1.105  0.2177 -0.4119 -0.1970
 1371ETH      H 6156   2.455   3.434   0.874 -2.2478 -0.4049  0.9347
 1371ETH     H1 6157   2.402   3.487   1.021 -0.7400 -1.7927  0.8861
 1371ETH     H2 6158   2.531   3.356   1.012  1.1474  1.5477  1.9598
 1371ETH     H3 6159   2.672   3.536   0.912 -2.1038  0.5342 -2.8338
 1371ETH     H4 6160   2.545   3.661   0.961 -0.7746  0.4571  1.8991
 1371ETH     H5 6161   2.728   3.616   1.103 -1.1315  1.3337 -0.0260
 1372ETH      C 6162   2.952   0.707   3.983  0.0581 -0.2197  0.6122
 1372ETH     C1 6163   2.828   0.775   4.034 -0.5206 -0.4486 -0.9131
 1372ETH      O 6164   2.767   0.710   4.151 -0.2628  0.2389  0.3801
 1372ETH      H 6165   2.973   0.745   3.882 -1.8454 -0.5337  0.0375
 1372ETH     H1 6166   2.924   0.602   3.967  0.9562 -0.5510  1.2012
 1372ETH     H2 6167   3.035   0.710   4.054  1.5070 -0.0226 -1.0281
 1372ETH     H3 6168   2.867   0.874   4.061 -2.7494  1.0048 -2.6254
 1372ETH     H4 6169   2.753   0.784   3.954  1.5708  0.3267 -2.8786
 1372ETH     H5 6170   2.690   0.761   4.182 -0.1178  0.0196  1.1236
 1373ETH      C 6171   2.802   0.249   2.837  0.7529 -0.0806  0.0381
 1373ETH     C1 6172   2.810   0.385   2.763 -0.3995  0.2382 -0.8460
 1373ETH      O 6173   2.854   0.365   2.628 -0.7778 -0.4352  0.0880
 1373ETH      H 6174   2.727   0.181   2.794 -0.5255  1.2448  0.1034
 1373ETH     H1 6175   2.766   0.277   2.937  0.4442  0.4164 -0.2087
 1373ETH     H2 6176   2.901   0.202   2.846 -0.1867 -2.1216  0.4004
 1373ETH     H3 6177   2.707   0.423   2.761 -0.2130  1.0730  1.5578
 1373ETH     H4 6178   2.874   0.457   2.816  0.7260 -1.9891  1.0134
 1373ETH     H5 6179   2.852   0.447   2.576 -1.3472 -0.1331  0.5716
 1374ETH      C 6180   3.364   2.682   2.835 -0.2653 -0.4826  0.5370
 1374ETH     C1 6181   3.463   2.678   2.721 -0.3068 -0.1076  0.1149
 1374ETH      O 6182   3.524   2.806   2.698  0.2362  0.2783  0.3904
 1374ETH      H 6183   3.411   2.715   2.928  1.2399 -1.7239  0.2464
 1374ETH     H1 6184   3.321   2.584   2.854  0.4865 -0.5094  2.2737
 1374ETH     H2 6185   3.293   2.753   2.790  1.3403  0.5142 -0.5158
 1374ETH     H3 6186   3.537   2.605   2.756  0.3803  0.8972  0.8286
 1374ETH     H4 6187   3.418   2.651   2.625  0.1643  1.4011 -0.5609
 1374ETH     H5 6188   3.501   2.830   2.607  0.8436  1.2572  0.4763
 1375ETH      C 6189   3.894   3.531   2.657  0.0803  0.7993 -0.6735
 1375ETH     C1 6190   4.022   3.453   2.693  1.3403 -0.2281 -0.7921
 1375ETH      O 6191   4.087   3.525   2.803 -0.8607 -0.0516  0.9797
 1375ETH      H 6192   3.932   3.608   2.589  0.8193  0.1457 -1.0241
 1375ETH     H1 6193   3.846   3.582   2.741 -1.8361 -1.0834 -0.5392
 1375ETH     H2 6194   3.820   3.459   2.620 -2.1540  3.1276 -1.0550
 1375ETH     H3 6195   3.998   3.352   2.729 -2.5193  0.8913  0.1949
 1375ETH     H4 6196   4.087   3.449   2.604  0.1196  0.8106 -1.7724
 1375ETH     H5 6197   4.135   3.463   2.861  1.3953  3.0197  2.7069
 1376ETH      C 6198   0.537   2.335   3.504 -0.1115  0.7357  0.5289
 1376ETH     C1 6199   0.675   2.317   3.575 -0.2925  0.1713 -0.9657
 1376ETH      O 6200   0.777   2.367   3.486  0.5720 -0.5928 -0.0200
 1376ETH      H 6201   0.485   2.429   3.521 -0.2040  0.4134  2.2837
 1376ETH     H1 6202   0.474   2.250   3.533  0.9455 -0.6572 -1.0308
 1376ETH     H2 6203   0.559   2.321   3.397 -0.2315 -0.8240  0.6738
 1376ETH     H3 6204   0.678   2.361   3.675  2.3763  2.3366 -1.8613
 1376ETH     H4 6205   0.696   2.210   3.585  0.2488  0.4090  0.7274
 1376ETH     H5 6206   0.858   2.347   3.536  0.4827  0.2260  0.4855
 1377ETH      C 6207   4.161   1.305   3.632  0.6149  0.1497 -0.2213
 1377ETH     C1 6208   4.168   1.168   3.559 -0.1178  0.5647 -0.5267
 1377ETH      O 6209   4.094   1.160   3.442  0.5340  0.2132 -0.5832
 1377ETH      H 6210   4.202   1.293   3.733 -1.3646 -0.3483  0.5691
 1377ETH     H1 6211   4.060   1.347   3.624  0.4039 -0.5851 -1.6788
 1377ETH     H2 6212   4.234   1.371   3.585  2.5604 -1.5078  0.3084
 1377ETH     H3 6213   4.274   1.150   3.537 -0.8695 -1.5792 -2.9990
 1377ETH     H4 6214   4.153   1.079   3.622  1.4043 -1.1674 -2.4430
 1377ETH     H5 6215   4.091   1.248   3.401  1.3853 -0.4831 -2.2353
 1378ETH      C 6216   4.153   2.755   3.573  0.0324 -0.2190  0.0735
 1378ETH     C1 6217   4.121   2.860   3.672 -0.1860 -0.0403 -0.1047
 1378ETH      O 6218   4.236   2.884   3.747 -0.0030 -0.0681  0.4053
 1378ETH      H 6219   4.191   2.666   3.624  0.2600 -0.4307 -0.4647
 1378ETH     H1 6220   4.214   2.791   3.489 -1.3329 -1.9019 -1.7328
 1378ETH     H2 6221   4.068   2.715   3.517  0.7719 -2.4234  0.4273
 1378ETH     H3 6222   4.084   2.953   3.626 -1.0517 -0.9325 -1.2899
 1378ETH     H4 6223   4.044   2.835   3.746 -1.1833 -1.2886 -1.5121
 1378ETH     H5 6224   4.205   2.881   3.839 -0.0819 -1.7810  0.3457
 1379ETH      C 6225   3.631   1.108   0.297  0.1284  0.2217 -0.1248
 1379ETH     C1 6226   3.634   0.980   0.387 -0.0802  0.3808  0.4264
 1379ETH      O 6227   3.640   0.877   0.290  0.6871 -0.0533  0.1215
 1379ETH      H 6228   3.689   1.096   0.205  0.7413  0.7621  0.1851
 1379ETH     H1 6229   3.670   1.200   0.340  0.5184 -0.4153  0.9005
 1379ETH     H2 6230   3.526   1.126   0.269 -0.2252 -0.9110  0.3756
 1379ETH     H3 6231   3.728   0.980   0.443  0.0444  0.3138  0.2195
 1379ETH     H4 6232   3.540   0.973   0.443 -0.1035  3.5099  0.9791
 1379ETH     H5 6233   3.669   0.796   0.335  0.5303 -0.8536 -1.1473
 1380ETH      C 6234   2.535   0.288   1.817  0.0222 -0.7551  0.4139
 1380ETH     C1 6235   2.545   0.176   1.926  0.7315  0.7826  0.4780
 1380ETH      O 6236   2.541   0.041   1.869 -0.1303  0.2017 -0.2253
 1380ETH      H 6237   2.628   0.280   1.760  0.5027 -1.5292  1.2891
 1380ETH     H1 6238   2.535   0.378   1.881 -0.4093 -1.0316  0.8103
 1380ETH     H2 6239   2.442   0.271   1.762  0.5280 -0.5322 -0.5254
 1380ETH     H3 6240   2.634   0.181   1.990  0.9784  2.3349  0.0505
 1380ETH     H4 6241   2.450   0.195   1.977 -1.2649  0.4811 -2.7928
 1380ETH     H5 6242   2.541   0.054   1.773 -3.0709  1.6267 -0.1357
 1381ETH      C 6243   0.624   0.961   3.128 -0.5683  0.3542 -0.0123
 1381ETH     C1 6244   0.605   0.826   3.047  0.1438  0.3571 -0.2690
 1381ETH      O 6245   0.521   0.849   2.944 -0.4430  0.2461  0.4476
 1381ETH      H 6246   0.691   0.936   3.212  0.5622 -0.7972 -1.2203
 1381ETH     H1 6247   0.529   0.996   3.171 -0.3407  0.5347  0.3544
 1381ETH     H2 6248   0.675   1.031   3.061  0.8040 -0.8789 -0.2949
 1381ETH     H3 6249   0.703   0.787   3.016  0.7232  1.1579  0.4737
 1381ETH     H4 6250   0.570   0.749   3.118  1.4134  1.6119  1.8406
 1381ETH     H5 6251   0.514   0.944   2.928 -2.5357 -0.0497 -0.7712
 1382ETH      C 6252   0.306   0.402   0.180  0.3013  0.3211 -0.2093
 1382ETH     C1 6253   0.201   0.290   0.208 -0.0765 -0.2707 -0.6252
 1382ETH      O 6254   0.262   0.161   0.191 -0.3659 -0.0377 -0.3772
 1382ETH      H 6255   0.341   0.399   0.077 -2.5519 -0.3367 -1.2582
 1382ETH     H1 6256   0.385   0.402   0.256  0.3452  1.1425 -0.2488
 1382ETH     H2 6257   0.246   0.493   0.196 -0.2040 -0.2975  1.7848
 1382ETH     H3 6258   0.162   0.298   0.310  0.2537  1.1927 -0.6051
 1382ETH     H4 6259   0.119   0.310   0.138 -0.9195 -0.7016  0.2101
 1382ETH     H5 6260   0.319   0.152   0.269 -0.9187 -2.2763 -0.1585
 1383ETH      C 6261   2.685   1.178   2.712  0.3136  0.4745  0.4459
 1383ETH     C1 6262   2.777   1.278   2.788 -0.0851  0.2811 -0.2066
 1383ETH      O 6263   2.897   1.288   2.718 -0.0912  0.0803 -0.3277
 1383ETH      H 6264   2.639   1.219   2.621 -0.2768 -0.1016  0.4791
 1383ETH     H1 6265   2.595   1.151   2.767 -0.3356 -0.6780 -1.0994
 1383ETH     H2 6266   2.744   1.092   2.677  0.1030  1.0209 -1.3647
 1383ETH     H3 6267   2.740   1.381   2.791  0.6899  0.6174 -1.4985
 1383ETH     H4 6268   2.796   1.230   2.885 -1.3744 -0.9734 -0.5346
 1383ETH     H5 6269   2.946   1.351   2.774 -2.0235  2.1040 -0.7683
 1384ETH      C 6270   1.172   2.210   3.549  0.0382  0.0314  0.5528
 1384ETH     C1 6271   1.096   2.207   3.682 -0.7286 -0.9303 -0.3514
 1384ETH      O 6272   0.968   2.262   3.681  0.1060  1.0322  0.3558
 1384ETH      H 6273   1.176   2.314   3.516  2.9689  0.5925  2.3907
 1384ETH     H1 6274   1.115   2.150   3.477  2.6413 -1.6173 -0.2537
 1384ETH     H2 6275   1.272   2.165   3.547  0.1002  0.1360  1.1776
 1384ETH     H3 6276   1.095   2.102   3.712 -1.2412 -0.9114 -0.2918
 1384ETH     H4 6277   1.171   2.250   3.750  0.2439 -1.8803 -0.7950
 1384ETH     H5 6278   0.935   2.269   3.773 -0.8239  2.7444 -0.0716
 1385ETH      C 6279   1.970   1.385   3.325  0.1620  0.5215  1.0488
 1385ETH     C1 6280   1.851   1.474   3.363  0.5340  0.4143  0.0994
 1385ETH      O 6281   1.882   1.567   3.463 -0.1157  0.2996 -0.0460
 1385ETH      H 6282   1.960   1.330   3.231  3.1462 -0.1302  1.0012
 1385ETH     H1 6283   1.983   1.307   3.401 -1.0799 -0.8510 -0.1005
 1385ETH     H2 6284   2.060   1.449   3.324  0.8313 -0.4031  0.5502
 1385ETH     H3 6285   1.838   1.528   3.268  0.1234 -0.9617 -0.6600
 1385ETH     H4 6286   1.761   1.415   3.384 -0.7778  1.3924 -2.3754
 1385ETH     H5 6287   1.958   1.617   3.428  0.0171 -0.0691 -0.2903
 1386ETH      C 6288   2.823   0.157   0.985 -0.3541  0.0871  0.0612
 1386ETH     C1 6289   2.684   0.180   0.943 -0.1105 -0.4499  0.8163
 1386ETH      O 6290   2.602   0.187   1.055 -0.3280  0.0460 -0.1379
 1386ETH      H 6291   2.830   0.058   1.031 -0.1639 -1.1897 -2.5241
 1386ETH     H1 6292   2.839   0.226   1.069  0.3331 -1.4514  1.2494
 1386ETH     H2 6293   2.879   0.158   0.891 -0.4348  2.3165  0.0030
 1386ETH     H3 6294   2.684   0.265   0.874  0.6877 -1.5481 -0.6173
 1386ETH     H4 6295   2.658   0.091   0.883 -0.4903  0.8139 -0.9942
 1386ETH     H5 6296   2.562   0.099   1.056  0.0224 -0.1240  2.0640
 1387ETH      C 6297   3.514   3.694   4.017  0.4301 -0.2001 -0.3930
 1387ETH     C1 6298   3.436   3.718   4.142  0.0765  0.1976  0.5034
 1387ETH      O 6299   3.329   3.622   4.163 -0.4877  0.1771  0.4025
 1387ETH      H 6300   3.567   3.598   4.022 -0.4847 -0.7360 -0.7557
 1387ETH     H1 6301   3.588   3.774   4.010  0.1086  0.2741  1.1883
 1387ETH     H2 6302   3.444   3.691   3.933 -1.1246 -2.8568  0.8365
 1387ETH     H3 6303   3.516   3.717   4.216  0.0771 -0.2943  0.4944
 1387ETH     H4 6304   3.393   3.819   4.134  1.0724  0.6744  1.0934
 1387ETH     H5 6305   3.288   3.606   4.076  0.1720 -0.0943  0.1306
 1388ETH      C 6306   3.861   3.814   3.480  1.0954  0.1741 -0.7326
 1388ETH     C1 6307   3.903   3.910   3.365  0.5911 -0.5615  0.6007
 1388ETH      O 6308   3.968   4.027   3.414 -0.3962 -0.3355 -0.5000
 1388ETH      H 6309   3.823   3.721   3.436 -2.1835  0.1455  1.7493
 1388ETH     H1 6310   3.793   3.861   3.552  2.2822  1.1180 -0.1943
 1388ETH     H2 6311   3.944   3.776   3.541  1.2995  0.1336 -1.0338
 1388ETH     H3 6312   3.967   3.848   3.301  0.9280 -0.6089  0.9750
 1388ETH     H4 6313   3.812   3.937   3.312  0.8439  1.2733  1.0430
 1388ETH     H5 6314   3.989   4.087   3.340 -0.0594  0.0531 -0.0915
 1389ETH      C 6315   4.256   1.605   2.894 -0.5428  0.0410 -0.5219
 1389ETH     C1 6316   4.153   1.554   2.788  0.3205 -0.3865  0.0066
 1389ETH      O 6317   4.075   1.451   2.855  0.4150  0.6401  0.3228
 1389ETH      H 6318   4.196   1.660   2.968 -1.6828  0.4681 -1.7212
 1389ETH     H1 6319   4.326   1.670   2.841 -0.7402 -0.6658 -1.6773
 1389ETH     H2 6320   4.316   1.524   2.937  0.5741  1.7493  1.3206
 1389ETH     H3 6321   4.096   1.638   2.745  2.5919  0.3586 -1.7371
 1389ETH     H4 6322   4.213   1.515   2.705  0.3576  0.1419 -0.2193
 1389ETH     H5 6323   4.003   1.419   2.798  1.3750 -1.6920  0.2814
 1390ETH      C 6324   3.575   3.562   0.268  0.8657  0.5363 -0.3535
 1390ETH     C1 6325   3.694   3.625   0.326  0.6739 -0.2597 -0.6728
 1390ETH      O 6326   3.726   3.745   0.244  0.2696 -0.1904  0.1893
 1390ETH      H 6327   3.486   3.625   0.264  0.1654 -0.2648  1.4929
 1390ETH     H1 6328   3.547   3.474   0.328 -0.1874  0.7495 -0.5220
 1390ETH     H2 6329   3.596   3.527   0.166 -1.2684  1.6521 -1.2384
 1390ETH     H3 6330   3.680   3.668   0.426 -0.6409 -1.1534 -0.4524
 1390ETH     H4 6331   3.780   3.557   0.331  0.4141 -0.5019  1.1987
 1390ETH     H5 6332   3.708   3.826   0.295 -1.0817 -0.0777 -0.4374
 1391ETH      C 6333   2.456   1.756   1.231 -0.0286 -0.3154  0.0119
 1391ETH     C1 6334   2.569   1.848   1.202  0.5118 -0.7038 -0.1328
 1391ETH      O 6335   2.653   1.885   1.313 -0.4044  0.1147 -0.6039
 1391ETH      H 6336   2.490   1.658   1.265  0.1872 -0.7848 -1.4615
 1391ETH     H1 6337   2.387   1.738   1.148 -0.3033 -1.1179  0.4130
 1391ETH     H2 6338   2.408   1.805   1.316  0.7234  0.7306 -0.1363
 1391ETH     H3 6339   2.621   1.816   1.111  1.6846 -0.9460  0.5914
 1391ETH     H4 6340   2.508   1.931   1.163  0.3898 -0.3643  0.7507
 1391ETH     H5 6341   2.679   1.978   1.310  0.1340  0.1817  2.6162
 1392ETH      C 6342   0.752   1.414   0.284  0.1365 -0.0488 -0.4391
 1392ETH     C1 6343   0.728   1.502   0.410 -0.4376  0.1575  0.0232
 1392ETH      O 6344   0.600   1.476   0.459  0.2136  0.2243  0.0034
 1392ETH      H 6345   0.855   1.438   0.252  0.5314 -0.1482  0.7298
 1392ETH     H1 6346   0.683   1.428   0.199  2.4678 -0.9182 -2.6254
 1392ETH     H2 6347   0.765   1.307   0.304  2.7459  0.3612  0.5276
 1392ETH     H3 6348   0.797   1.469   0.489 -1.4078  0.0737  0.8571
 1392ETH     H4 6349   0.753   1.607   0.392  0.9714 -0.2743 -0.6514
 1392ETH     H5 6350   0.561   1.564   0.472  2.1219  1.0993  0.1054
 1393ETH      C 6351   1.472   2.254   4.208 -0.2212 -0.5877 -0.1373
 1393ETH     C1 6352   1.372   2.149   4.256 -0.2878  0.3708 -0.6726
 1393ETH      O 6353   1.318   2.197   4.379 -0.4452  0.2494  0.0304
 1393ETH      H 6354   1.560   2.274   4.270 -0.1119  0.4646 -0.6131
 1393ETH     H1 6355   1.431   2.355   4.208  0.3156 -0.3666 -0.0608
 1393ETH     H2 6356   1.508   2.235   4.106  1.7519  1.6008  0.0720
 1393ETH     H3 6357   1.295   2.128   4.181 -1.1016  3.4159 -0.8275
 1393ETH     H4 6358   1.440   2.064   4.268  1.5368  2.0445  1.9876
 1393ETH     H5 6359   1.383   2.170   4.446 -0.2164  1.5899  0.3898
 1394ETH      C 6360   2.283   1.157   3.446 -0.0427 -0.8581 -0.2539
 1394ETH     C1 6361   2.343   1.300   3.446 -0.2031  0.1041 -0.0980
 1394ETH      O 6362   2.456   1.303   3.371  0.2658  0.5175 -0.2945
 1394ETH      H 6363   2.209   1.151   3.526  0.5880 -0.4413  0.3662
 1394ETH     H1 6364   2.357   1.079   3.469  0.0969  0.2157  3.7125
 1394ETH     H2 6365   2.237   1.135   3.349 -2.3138  0.5172  0.4459
 1394ETH     H3 6366   2.277   1.383   3.418  1.7549  1.7945  0.0124
 1394ETH     H4 6367   2.364   1.326   3.551  0.3272  2.8914 -0.7981
 1394ETH     H5 6368   2.432   1.330   3.280 -0.5605 -0.8038 -0.5055
 1395ETH      C 6369   4.261   1.278   3.190  0.3924 -0.4279 -0.0331
 1395ETH     C1 6370   4.191   1.417   3.178 -0.1262  0.1633  0.2756
 1395ETH      O 6371   4.155   1.444   3.307  0.5140  0.3484 -0.2818
 1395ETH      H 6372   4.195   1.198   3.224  0.6521 -0.1542  1.1451
 1395ETH     H1 6373   4.345   1.289   3.260 -0.2779  0.6250  0.6284
 1395ETH     H2 6374   4.301   1.252   3.091  0.3154  0.1875 -0.2282
 1395ETH     H3 6375   4.271   1.485   3.145  1.1396  0.1588  3.0702
 1395ETH     H4 6376   4.102   1.416   3.114  1.7760  1.9584 -2.6640
 1395ETH     H5 6377   4.171   1.538   3.325 -2.4314  0.5153  2.3568
 1396ETH      C 6378   1.650   0.848   2.073  0.3992 -0.4810  0.0613
 1396ETH     C1 6379   1.777   0.776   2.123 -0.5962  0.0184  0.6580
 1396ETH      O 6380   1.793   0.787   2.265  0.3956 -0.4655 -0.3850
 1396ETH      H 6381   1.556   0.814   2.119 -0.3507  2.0065  0.4854
 1396ETH     H1 6382   1.640   0.850   1.963 -0.1464 -0.9542  0.0971
 1396ETH     H2 6383   1.653   0.954   2.097  0.5843 -0.7486  1.2617
 1396ETH     H3 6384   1.772   0.670   2.095 -1.2728  0.3726 -0.6083
 1396ETH     H4 6385   1.870   0.813   2.078  0.6313 -1.8963  1.4753
 1396ETH     H5 6386   1.877   0.746   2.293 -0.6417 -0.6133  3.0237
 1397ETH      C 6387   0.973   2.926   4.047  0.3005  0.1868  0.0764
 1397ETH     C1 6388   1.016   3.037   3.956  0.2995  0.1721  0.2062
 1397ETH      O 6389   1.123   3.115   3.997  0.0102  0.1404  0.0121
 1397ETH      H 6390   0.899   2.859   4.001  1.0549  0.1188 -1.0759
 1397ETH     H1 6391   0.930   2.974   4.136  0.3015 -0.1086  0.2398
 1397ETH     H2 6392   1.060   2.866   4.079  0.3833 -0.6245 -1.5832
 1397ETH     H3 6393   1.063   2.990   3.869  0.3858 -1.0293  0.8743
 1397ETH     H4 6394   0.932   3.096   3.917  1.7554  1.7005 -0.7448
 1397ETH     H5 6395   1.102   3.196   3.947 -0.4092  0.1515  0.2031
 1398ETH      C 6396   1.766   3.800   3.348  0.4204  0.3633  0.1797
 1398ETH     C1 6397   1.829   3.918   3.422  0.0582  0.1306 -0.0878
 1398ETH      O 6398   1.873   4.025   3.332 -0.6794  0.1349 -0.3598
 1398ETH      H 6399   1.838   3.763   3.274  2.1466 -0.4347  2.1308
 1398ETH     H1 6400   1.669   3.814   3.299  0.7741  2.0236 -0.0808
 1398ETH     H2 6401   1.753   3.720   3.423 -1.2505 -0.0216 -0.4753
 1398ETH     H3 6402   1.749   3.952   3.488  0.1959  0.2174  0.0334
 1398ETH     H4 6403   1.913   3.879   3.481  0.8691  1.1718 -0.5274
 1398ETH     H5 6404   1.792   4.062   3.294 -2.4261 -0.2891  2.6208
 1399ETH      C 6405   4.069   3.560   0.375 -0.1582  0.8939 -0.0253
 1399ETH     C1 6406   4.141   3.480   0.267 -0.0770 -0.0584 -0.6240
 1399ETH      O 6407   4.226   3.572   0.202  0.5123  0.0209  0.4988
 1399ETH      H 6408   4.143   3.595   0.447 -0.7000 -1.1030  1.5914
 1399ETH     H1 6409   3.997   3.500   0.432 -0.5287  0.0626 -1.3012
 1399ETH     H2 6410   4.008   3.634   0.322 -1.9511 -0.7954 -0.4448
 1399ETH     H3 6411   4.206   3.406   0.315 -0.2670  0.3113  0.2271
 1399ETH     H4 6412   4.071   3.439   0.193 -1.4321  1.4135 -0.2140
 1399ETH     H5 6413   4.174   3.646   0.167  0.0181 -0.9177 -0.8120
 1400ETH      C 6414   3.723   0.811   2.660 -0.1943 -0.0759  0.7095
 1400ETH     C1 6415   3.568   0.794   2.688  0.9831  0.0190  0.0705
 1400ETH      O 6416   3.493   0.879   2.604  0.7839  0.0982 -0.4333
 1400ETH      H 6417   3.762   0.909   2.631  0.7091 -1.1545 -2.0395
 1400ETH     H1 6418   3.754   0.747   2.576 -1.1579  1.1193 -0.5927
 1400ETH     H2 6419   3.789   0.781   2.743  1.0313  0.6902  0.0333
 1400ETH     H3 6420   3.530   0.691   2.681  2.9245 -0.7237 -0.2458
 1400ETH     H4 6421   3.556   0.813   2.795 -0.9033  0.9823 -0.2744
 1400ETH     H5 6422   3.546   0.888   2.523 -0.7443  1.5753 -1.3396
 1401ETH      C 6423   3.020   0.285   2.182 -0.3869  0.0144 -0.2323
 1401ETH     C1 6424   2.969   0.425   2.209 -0.0146 -0.5898  0.8415
 1401ETH      O 6425   3.072   0.522   2.189  0.0101  0.1310 -0.3054
 1401ETH      H 6426   3.110   0.272   2.243  1.2771 -0.1413 -2.5768
 1401ETH     H1 6427   3.026   0.254   2.077  0.6275 -0.2821 -0.1010
 1401ETH     H2 6428   2.949   0.214   2.225 -0.1217 -0.2185 -0.1729
 1401ETH     H3 6429   2.883   0.443   2.143  1.0436  1.7957 -0.0151
 1401ETH     H4 6430   2.934   0.428   2.313  2.8921  1.7628  1.9060
 1401ETH     H5 6431   3.066   0.539   2.093  1.4919 -3.7210 -1.2586
 1402ETH      C 6432   2.516   2.605   1.578  0.1563  0.3777  0.5388
 1402ETH     C1 6433   2.596   2.474   1.562  0.3723 -0.5763 -0.2216
 1402ETH      O 6434   2.691   2.465   1.656 -0.4221  0.1477 -0.2985
 1402ETH      H 6435   2.429   2.599   1.644  1.5100 -0.7779  2.2948
 1402ETH     H1 6436   2.484   2.652   1.484 -1.6551 -0.6047  0.6259
 1402ETH     H2 6437   2.572   2.682   1.633 -0.1286  0.9640  0.0213
 1402ETH     H3 6438   2.532   2.385   1.563  1.0879 -1.1220 -1.3330
 1402ETH     H4 6439   2.647   2.481   1.466 -0.2674  1.7226 -0.4708
 1402ETH     H5 6440   2.645   2.454   1.740 -0.7369  3.0056  0.0118
 1403ETH      C 6441   2.645   0.094   0.562  0.2552  1.0271  0.9318
 1403ETH     C1 6442   2.496   0.082   0.579  0.1631 -0.3560  0.4952
 1403ETH      O 6443   2.456  -0.049   0.619  0.3295  0.1756  0.1842
 1403ETH      H 6444   2.683   0.025   0.485 -1.8817  1.9108 -1.0409
 1403ETH     H1 6445   2.699   0.073   0.655 -0.5020  0.8769  1.3511
 1403ETH     H2 6446   2.664   0.197   0.532  1.9517  0.1104 -1.4013
 1403ETH     H3 6447   2.476   0.152   0.662  1.8191 -0.1359  0.7331
 1403ETH     H4 6448   2.441   0.119   0.491  2.3870  3.7333  0.5756
 1403ETH     H5 6449   2.519  -0.064   0.691  2.8719  3.2261 -1.1538
 1404ETH      C 6450   2.927   0.189   1.779  0.6603 -0.9309 -0.1692
 1404ETH     C1 6451   2.909   0.052   1.710 -0.0746 -0.5836 -0.3768
 1404ETH      O 6452   3.007   0.038   1.605  0.7061  0.3040 -0.0418
 1404ETH      H 6453   2.843   0.210   1.846  0.6740 -1.8887  0.1568
 1404ETH     H1 6454   2.935   0.269   1.704  0.1981 -0.6270  0.1027
 1404ETH     H2 6455   3.023   0.182   1.831  0.3173 -0.4127  0.5418
 1404ETH     H3 6456   2.907  -0.031   1.782 -2.1722 -0.8508 -0.6906
 1404ETH     H4 6457   2.814   0.036   1.657  0.2776 -1.1645 -0.8401
 1404ETH     H5 6458   2.970   0.071   1.521 -1.9664  0.4436  1.0754
 1405ETH      C 6459   0.771   2.437   2.195 -0.2314 -0.1475 -0.2349
 1405ETH     C1 6460   0.664   2.467   2.090  0.6981  0.1888 -0.2296
 1405ETH      O 6461   0.713   2.556   1.994  0.4293 -0.0239  0.3202
 1405ETH      H 6462   0.834   2.518   2.234  4.0764 -1.7648 -3.0167
 1405ETH     H1 6463   0.845   2.361   2.169  1.1920  0.0784  2.6873
 1405ETH     H2 6464   0.720   2.391   2.281 -2.4980  2.4615 -0.0430
 1405ETH     H3 6465   0.642   2.366   2.053  1.0600  0.1402 -0.3160
 1405ETH     H4 6466   0.569   2.499   2.135 -0.8642 -2.2134 -1.5723
 1405ETH     H5 6467   0.667   2.525   1.914  0.2644 -0.1127  0.4461
 1406ETH      C 6468   1.103   0.724   0.988 -0.1604 -0.0280  0.1980
 1406ETH     C1 6469   1.057   0.824   0.887  0.0672  0.1302  0.7222
 1406ETH      O 6470   1.153   0.844   0.772  0.5992  0.1771 -0.1468
 1406ETH      H 6471   1.064   0.746   1.088  1.1660 -0.9577  0.9673
 1406ETH     H1 6472   1.211   0.727   1.010 -0.2668 -0.9855  0.9331
 1406ETH     H2 6473   1.086   0.618   0.963  2.1402 -1.0262  2.3213
 1406ETH     H3 6474   0.960   0.786   0.855 -0.9712  3.1723 -0.0436
 1406ETH     H4 6475   1.051   0.919   0.941  1.9419  0.0987  1.0840
 1406ETH     H5 6476   1.100   0.866   0.694 -0.8574 -1.1732  0.4194
 1407ETH      C 6477   0.972   0.791   1.548  0.6799  0.3183  0.2645
 1407ETH     C1 6478   0.999   0.746   1.693  0.4028  0.2780 -0.4469
 1407ETH      O 6479   0.904   0.644   1.736  0.2666 -0.1614 -0.6790
 1407ETH      H 6480   1.042   0.867   1.512 -0.8327  1.4660 -0.3904
 1407ETH     H1 6481   0.869   0.827   1.537  0.3584 -0.2141  1.3670
 1407ETH     H2 6482   0.994   0.702   1.489  0.5119 -1.4111  2.6829
 1407ETH     H3 6483   1.100   0.703   1.703  0.6755  0.9184 -0.4313
 1407ETH     H4 6484   0.998   0.829   1.764 -0.1712  0.1435 -0.2903
 1407ETH     H5 6485   0.906   0.581   1.662  1.1934  1.1586 -1.8515
 1408ETH      C 6486   2.065   2.157   0.236  0.3186  0.1303 -0.7130
 1408ETH     C1 6487   1.918   2.155   0.193 -0.8450  0.2282  0.0678
 1408ETH      O 6488   1.863   2.057   0.273  0.0057  0.2396 -0.3445
 1408ETH      H 6489   2.128   2.180   0.149  0.1162  0.3961 -0.7924
 1408ETH     H1 6490   2.099   2.062   0.278  0.6707  0.1651 -0.9064
 1408ETH     H2 6491   2.080   2.232   0.315  0.3399  0.2286 -0.8095
 1408ETH     H3 6492   1.866   2.251   0.198  0.3979  1.0596 -1.6618
 1408ETH     H4 6493   1.919   2.114   0.091  1.9588 -1.2287  0.5803
 1408ETH     H5 6494   1.881   1.975   0.225  1.8374  2.5367 -4.0217
 1409ETH      C 6495   0.303   3.124   1.043  0.2454 -0.1121 -0.5162
 1409ETH     C1 6496   0.362   3.028   1.161 -0.3721  0.6354 -0.4105
 1409ETH      O 6497   0.349   2.893   1.110 -0.0162 -0.3079 -0.3364
 1409ETH      H 6498   0.348   3.119   0.943  1.3402  1.2265 -0.1230
 1409ETH     H1 6499   0.302   3.227   1.080  0.3863  0.1709 -1.2748
 1409ETH     H2 6500   0.198   3.093   1.033  0.5743 -0.9254 -1.6964
 1409ETH     H3 6501   0.468   3.053   1.175 -0.4024 -0.6699  3.3990
 1409ETH     H4 6502   0.302   3.049   1.251  1.8217 -0.3730  1.3953
 1409ETH     H5 6503   0.260   2.885   1.071 -0.3979 -0.6024  0.5721
 1410ETH      C 6504   0.353   3.003   1.585 -0.3027 -0.2419 -0.5212
 1410ETH     C1 6505   0.439   2.875   1.594 -0.0200  0.1318 -0.1723
 1410ETH      O 6506   0.490   2.869   1.462  0.1205 -0.3948  0.2537
 1410ETH      H 6507   0.277   2.985   1.509 -1.2338 -0.5357  0.4569
 1410ETH     H1 6508   0.401   3.099   1.563  1.1239 -0.6640  0.5643
 1410ETH     H2 6509   0.298   3.019   1.678 -0.6849  1.9343 -1.0590
 1410ETH     H3 6510   0.516   2.874   1.671  2.1405  3.4468 -2.0198
 1410ETH     H4 6511   0.366   2.796   1.612  0.0468  0.1328  0.1049
 1410ETH     H5 6512   0.417   2.833   1.409 -1.8512  0.4470  2.2085
 1411ETH      C 6513   0.497   1.603   2.664  0.9634 -0.2747 -0.1468
 1411ETH     C1 6514   0.515   1.760   2.635  0.5503 -0.1597 -0.2251
 1411ETH      O 6515   0.499   1.838   2.757 -0.5301 -0.3146  0.0158
 1411ETH      H 6516   0.404   1.580   2.716  0.8228  0.9704  0.1859
 1411ETH     H1 6517   0.575   1.560   2.728 -0.6120 -0.0687  1.9998
 1411ETH     H2 6518   0.504   1.539   2.575  1.6915 -2.2987  1.3188
 1411ETH     H3 6519   0.620   1.774   2.608  0.8613 -2.3455 -0.2538
 1411ETH     H4 6520   0.438   1.794   2.564 -0.1553 -0.0814  0.5520
 1411ETH     H5 6521   0.565   1.806   2.821  0.6595  0.4835 -0.7579
 1412ETH      C 6522   1.160   0.247   1.851  0.8773 -0.2047 -0.0777
 1412ETH     C1 6523   1.178   0.212   2.004 -0.5004  0.1432  0.3453
 1412ETH      O 6524   1.060   0.252   2.080 -0.0252 -0.2559  0.0874
 1412ETH      H 6525   1.240   0.210   1.787 -0.3982 -0.6392 -1.4963
 1412ETH     H1 6526   1.143   0.353   1.831  0.3226 -0.1740  0.5152
 1412ETH     H2 6527   1.068   0.201   1.813  0.6107 -0.4103  0.7895
 1412ETH     H3 6528   1.213   0.108   2.011  0.0225  0.3028  0.1754
 1412ETH     H4 6529   1.265   0.267   2.043 -0.0806 -0.1703 -0.1313
 1412ETH     H5 6530   1.032   0.332   2.031 -1.0931 -1.1022 -0.7230
 1413ETH      C 6531   3.646   1.432   0.076 -0.3116  0.3687 -0.1995
 1413ETH     C1 6532   3.644   1.417  -0.070 -0.6337  0.1919  0.3788
 1413ETH      O 6533   3.521   1.468  -0.129  0.1154 -0.5498 -0.0506
 1413ETH      H 6534   3.568   1.369   0.119 -0.5662  1.7375  1.4261
 1413ETH     H1 6535   3.638   1.535   0.113 -0.2020 -0.4730  2.3496
 1413ETH     H2 6536   3.744   1.398   0.112  1.0986  3.9352 -0.2296
 1413ETH     H3 6537   3.731   1.470  -0.110  1.1235 -1.3204  1.9993
 1413ETH     H4 6538   3.658   1.310  -0.092  0.8892  0.2463  0.9658
 1413ETH     H5 6539   3.452   1.412  -0.090 -2.5396  2.4998 -0.0362
 1414ETH      C 6540   2.562   0.482   0.651  0.0345 -0.0173  1.2651
 1414ETH     C1 6541   2.575   0.626   0.588 -0.0491  0.3338  0.4051
 1414ETH      O 6542   2.662   0.699   0.671  0.0915  0.1025  0.4272
 1414ETH      H 6543   2.504   0.409   0.592 -1.5870  1.1914  1.2972
 1414ETH     H1 6544   2.516   0.485   0.750 -1.3209  0.3595  0.6446
 1414ETH     H2 6545   2.661   0.439   0.670 -0.3697 -0.9145  1.4293
 1414ETH     H3 6546   2.620   0.613   0.489  0.3722  0.5281  0.5669
 1414ETH     H4 6547   2.475   0.668   0.573 -0.4541 -1.2340 -1.6834
 1414ETH     H5 6548   2.746   0.653   0.653  0.5918  1.3582 -0.6358
 1415ETH      C 6549   2.346   0.779   2.124 -0.2944 -0.4259 -0.1533
 1415ETH     C1 6550   2.200   0.785   2.175 -1.1622 -0.0756  0.0186
 1415ETH      O 6551   2.123   0.687   2.104 -0.6087  0.3845  0.1209
 1415ETH      H 6552   2.348   0.797   2.016 -0.7893 -1.7772 -0.3996
 1415ETH     H1 6553   2.401   0.685   2.128  0.4466  0.0422  1.5047
 1415ETH     H2 6554   2.405   0.858   2.173 -1.6171 -1.7826  4.1399
 1415ETH     H3 6555   2.202   0.746   2.277 -2.7338 -1.8526 -0.5702
 1415ETH     H4 6556   2.155   0.885   2.167 -0.4122  0.1647 -1.4167
 1415ETH     H5 6557   2.159   0.602   2.135 -1.4109  0.6134  1.8071
 1416ETH      C 6558   0.376   3.603   3.456 -0.0576 -0.3238 -0.2767
 1416ETH     C1 6559   0.494   3.516   3.475  0.0066 -0.1157  0.2780
 1416ETH      O 6560   0.478   3.397   3.396  0.1104 -0.8193  0.2540
 1416ETH      H 6561   0.283   3.554   3.487  0.2882 -0.6065  0.3471
 1416ETH     H1 6562   0.362   3.639   3.354 -1.3919  1.4851  0.4995
 1416ETH     H2 6563   0.387   3.701   3.505 -0.9959  0.4032 -1.4797
 1416ETH     H3 6564   0.584   3.571   3.445 -0.2869 -0.1027 -0.6152
 1416ETH     H4 6565   0.513   3.488   3.579  0.2025 -1.9915 -0.2369
 1416ETH     H5 6566   0.430   3.340   3.458 -1.8676 -3.3068 -3.1691
 1417ETH      C 6567   4.066   0.792   0.495  0.5134  0.3388  0.4523
 1417ETH     C1 6568   4.215   0.775   0.536  0.2160 -0.0405  0.3071
 1417ETH      O 6569   4.243   0.630   0.517 -0.4683 -0.5399 -0.4801
 1417ETH      H 6570   3.996   0.743   0.563  2.3270  0.5582  2.5760
 1417ETH     H1 6571   4.045   0.749   0.396  1.3024 -0.2731  0.5403
 1417ETH     H2 6572   4.038   0.898   0.493 -0.8651  0.0056  1.0824
 1417ETH     H3 6573   4.269   0.830   0.458 -1.5309 -0.7656 -1.4917
 1417ETH     H4 6574   4.224   0.814   0.638  0.7259 -0.2778  0.3560
 1417ETH     H5 6575   4.215   0.611   0.425 -0.7896 -0.3467 -0.4222
 1418ETH      C 6576   1.824   2.958   2.768 -0.9616  0.4765  0.6944
 1418ETH     C1 6577   1.765   3.082   2.706 -0.9295  0.3225  0.0886
 1418ETH      O 6578   1.627   3.077   2.719 -0.0112 -0.1029  0.1558
 1418ETH      H 6579   1.777   2.959   2.867 -1.1907 -1.5411  0.6371
 1418ETH     H1 6580   1.932   2.975   2.775 -0.8401 -0.1293  0.2998
 1418ETH     H2 6581   1.803   2.870   2.706  0.9358 -0.7905  1.7410
 1418ETH     H3 6582   1.803   3.177   2.745 -1.6858  0.5994  0.1688
 1418ETH     H4 6583   1.783   3.102   2.600  0.4191 -0.4343  0.1511
 1418ETH     H5 6584   1.602   2.985   2.704 -0.7587  0.1762 -0.3614
 1419ETH      C 6585   3.274   0.615   3.585  0.1388 -0.3317 -0.1419
 1419ETH     C1 6586   3.321   0.589   3.443 -0.6923 -0.1689  0.1303
 1419ETH      O 6587   3.440   0.510   3.440  0.0315  0.1982 -0.3186
 1419ETH      H 6588   3.325   0.705   3.621  0.0166 -1.2239  2.5175
 1419ETH     H1 6589   3.294   0.544   3.666  0.4789  2.1801  2.1515
 1419ETH     H2 6590   3.165   0.626   3.587  0.2432  0.7539  0.2396
 1419ETH     H3 6591   3.237   0.537   3.395 -1.4947  0.3430  0.9461
 1419ETH     H4 6592   3.335   0.684   3.390  2.8264 -2.7510 -4.3212
 1419ETH     H5 6593   3.426   0.414   3.433  0.2013  0.1197  0.3446
 1420ETH      C 6594   0.702   0.521   0.677 -0.1575  0.3844 -0.5604
 1420ETH     C1 6595   0.781   0.456   0.790 -0.4242 -0.3787 -0.1492
 1420ETH      O 6596   0.898   0.396   0.735  0.4552  0.1222  0.4060
 1420ETH      H 6597   0.618   0.582   0.711 -1.3424 -0.6179 -1.6208
 1420ETH     H1 6598   0.646   0.448   0.618  0.9343 -1.5863  0.7115
 1420ETH     H2 6599   0.768   0.580   0.613 -0.4450  2.5941  1.0450
 1420ETH     H3 6600   0.821   0.533   0.857 -0.8535 -1.4073  1.3457
 1420ETH     H4 6601   0.725   0.383   0.849  0.9160  0.3421  2.1320
 1420ETH     H5 6602   0.943   0.469   0.687 -0.1318  1.3707  1.6919
 1421ETH      C 6603   3.285   1.609   1.506  0.1542 -0.2976  0.3793
 1421ETH     C1 6604   3.350   1.638   1.642 -0.3985 -0.8285 -0.0017
 1421ETH      O 6605   3.425   1.759   1.635  0.6126 -0.0110  0.0467
 1421ETH      H 6606   3.366   1.588   1.435 -0.6088 -1.7274 -0.1181
 1421ETH     H1 6607   3.223   1.693   1.475  2.0769  0.8796 -0.4139
 1421ETH     H2 6608   3.214   1.526   1.516 -0.8458  0.1520 -2.3163
 1421ETH     H3 6609   3.270   1.652   1.716 -0.0796  1.6358 -0.0217
 1421ETH     H4 6610   3.411   1.555   1.679 -0.2883 -1.0946 -0.7666
 1421ETH     H5 6611   3.507   1.738   1.587 -0.0927 -0.4438 -1.0168
 1422ETH      C 6612   3.650   3.486   0.636  0.0905  0.7924 -0.0098
 1422ETH     C1 6613   3.765   3.525   0.728  0.3465  0.4396  0.4181
 1422ETH      O 6614   3.821   3.652   0.689 -0.1400  0.2814 -0.1389
 1422ETH      H 6615   3.677   3.473   0.531 -2.1608  0.1303 -0.5559
 1422ETH     H1 6616   3.563   3.553   0.647 -1.0427 -0.2430 -1.9719
 1422ETH     H2 6617   3.614   3.387   0.668 -2.1028  2.1011  1.8672
 1422ETH     H3 6618   3.735   3.523   0.833 -0.3958  0.6878  0.2166
 1422ETH     H4 6619   3.838   3.444   0.718 -1.3887 -1.2069  0.5532
 1422ETH     H5 6620   3.790   3.722   0.749  3.0280  1.8067 -0.0607
 1423ETH      C 6621   0.295   1.283   0.401  0.0792 -0.3294  0.3767
 1423ETH     C1 6622   0.221   1.393   0.320  0.6716 -0.3417 -0.1638
 1423ETH      O 6623   0.305   1.474   0.240  0.1219 -0.1072 -0.7905
 1423ETH      H 6624   0.380   1.316   0.461  0.6313  0.5276 -0.8448
 1423ETH     H1 6625   0.320   1.196   0.339  1.8087  0.3790  0.0358
 1423ETH     H2 6626   0.226   1.234   0.471  1.0432 -4.0847 -1.0629
 1423ETH     H3 6627   0.141   1.358   0.254 -0.2059 -0.8149  1.1162
 1423ETH     H4 6628   0.169   1.451   0.398  0.8679 -3.3578  2.3846
 1423ETH     H5 6629   0.396   1.469   0.274  0.0345 -0.4643 -0.5957
 1424ETH      C 6630   2.893   1.194   1.515 -0.0730  0.3596 -0.1020
 1424ETH     C1 6631   2.865   1.222   1.665  0.8996 -0.4722  0.6343
 1424ETH      O 6632   2.814   1.360   1.661  0.2171  0.2257  0.2805
 1424ETH      H 6633   2.961   1.269   1.475  0.2652  0.0155 -0.1790
 1424ETH     H1 6634   2.802   1.182   1.454  0.0936  0.6038 -0.4018
 1424ETH     H2 6635   2.946   1.098   1.507 -1.1601 -0.1336 -2.2799
 1424ETH     H3 6636   2.787   1.151   1.696  0.5075  0.4771  1.8618
 1424ETH     H4 6637   2.954   1.219   1.729 -0.1877  1.8718  2.3940
 1424ETH     H5 6638   2.742   1.363   1.596 -0.7525 -1.0960  1.2248
 1425ETH      C 6639   1.036   0.308   2.741  0.2814  0.2140 -0.1879
 1425ETH     C1 6640   0.941   0.259   2.632 -0.2983  0.2984 -0.2465
 1425ETH      O 6641   0.988   0.305   2.502  0.5906 -0.2913 -0.3284
 1425ETH      H 6642   1.008   0.277   2.842  0.5020 -0.1676 -0.2431
 1425ETH     H1 6643   1.038   0.417   2.729  0.2872  0.0855 -1.4890
 1425ETH     H2 6644   1.138   0.270   2.731  0.2591 -0.0019  0.3832
 1425ETH     H3 6645   0.924   0.150   2.634 -0.0875  0.2686  0.0334
 1425ETH     H4 6646   0.841   0.296   2.658 -0.8819 -1.2110 -0.2253
 1425ETH     H5 6647   0.996   0.233   2.437 -2.2959 -0.9460 -0.0787
 1426ETH      C 6648   2.489   0.944   3.211  0.8817 -0.3912  0.1176
 1426ETH     C1 6649   2.573   0.991   3.091  0.7368 -0.5167 -0.7338
 1426ETH      O 6650   2.579   1.137   3.103  0.4900  0.1974 -0.1021
 1426ETH      H 6651   2.522   0.992   3.304  2.3588 -1.2922  0.0897
 1426ETH     H1 6652   2.505   0.837   3.228 -1.5560 -0.8404 -0.0455
 1426ETH     H2 6653   2.386   0.969   3.181  2.0158  2.2417 -2.0406
 1426ETH     H3 6654   2.677   0.962   3.108  1.6227  2.4072 -0.5000
 1426ETH     H4 6655   2.540   0.966   2.989 -1.0237  1.2319 -0.6739
 1426ETH     H5 6656   2.601   1.153   3.196  2.1422  1.1857 -0.6040
 1427ETH      C 6657   1.469   2.348   0.710 -0.7438 -0.6016  0.0724
 1427ETH     C1 6658   1.518   2.233   0.806 -0.2883  0.2579 -0.4288
 1427ETH      O 6659   1.501   2.108   0.740  0.2309 -0.0276  0.1417
 1427ETH      H 6660   1.494   2.448   0.749 -2.7288  1.5102 -3.4991
 1427ETH     H1 6661   1.360   2.340   0.700 -0.8977  1.3453 -0.3049
 1427ETH     H2 6662   1.496   2.342   0.604 -1.1674  1.0683 -0.1661
 1427ETH     H3 6663   1.620   2.250   0.843 -0.5732 -0.0716  0.5215
 1427ETH     H4 6664   1.451   2.234   0.892 -1.5856  0.3312 -1.4122
 1427ETH     H5 6665   1.568   2.042   0.764  0.6261 -1.1400 -3.4313
 1428ETH      C 6666   2.565   0.888   1.284  0.1351 -0.3949 -0.8007
 1428ETH     C1 6667   2.677   0.793   1.300 -0.5270 -0.1251  0.7177
 1428ETH      O 6668   2.774   0.849   1.387  0.5589  0.0522 -0.2492
 1428ETH      H 6669   2.490   0.880   1.363  0.6318  2.4337  0.0793
 1428ETH     H1 6670   2.521   0.866   1.186  1.1689 -1.5655 -1.0308
 1428ETH     H2 6671   2.614   0.986   1.278 -0.4139 -0.1716 -2.0057
 1428ETH     H3 6672   2.638   0.695   1.329  0.3813 -1.8366 -3.3093
 1428ETH     H4 6673   2.720   0.775   1.201 -1.5531  0.2888  0.1764
 1428ETH     H5 6674   2.837   0.782   1.415  0.6371  0.0095 -0.5232
 1429ETH      C 6675   3.382   1.100   0.590 -0.2179  0.0954 -0.5123
 1429ETH     C1 6676   3.283   0.986   0.630 -0.5234 -0.3917  0.5012
 1429ETH      O 6677   3.317   0.939   0.758 -0.0309 -0.0917 -0.0872
 1429ETH      H 6678   3.486   1.068   0.605  0.0750  0.9478 -0.6554
 1429ETH     H1 6679   3.363   1.198   0.636 -1.4427  0.5153 -1.8170
 1429ETH     H2 6680   3.366   1.115   0.483  2.4877  0.3363 -0.9390
 1429ETH     H3 6681   3.184   1.034   0.624  0.0960  0.8533 -0.1845
 1429ETH     H4 6682   3.277   0.900   0.562 -0.2561 -2.6107  3.1287
 1429ETH     H5 6683   3.254   0.867   0.770 -2.3343  1.6029 -1.2547
 1430ETH      C 6684   3.797   0.662   3.190 -0.5462  0.2512 -0.6460
 1430ETH     C1 6685   3.739   0.534   3.241  0.2420  0.3124  0.2252
 1430ETH      O 6686   3.771   0.432   3.141  0.0515  0.3188 -0.0883
 1430ETH      H 6687   3.905   0.665   3.211  0.2819 -0.3147 -4.1249
 1430ETH     H1 6688   3.738   0.740   3.240 -1.2253 -0.4845 -0.2856
 1430ETH     H2 6689   3.794   0.673   3.080  1.7397  1.5294 -0.6457
 1430ETH     H3 6690   3.787   0.507   3.336 -1.7662  1.9970  1.8021
 1430ETH     H4 6691   3.629   0.540   3.240  0.2016 -0.1259 -1.8038
 1430ETH     H5 6692   3.709   0.360   3.162  1.4923 -0.9868 -0.1575
 1431ETH      C 6693   3.787   1.460   3.603  0.4355  0.5650  0.2528
 1431ETH     C1 6694   3.755   1.556   3.721 -0.1740 -0.2453 -0.5834
 1431ETH      O 6695   3.874   1.615   3.770  0.0086 -0.0427  0.7360
 1431ETH      H 6696   3.861   1.513   3.543 -0.1811 -0.6933 -1.7474
 1431ETH     H1 6697   3.694   1.434   3.551 -0.1208 -0.1453  1.5425
 1431ETH     H2 6698   3.841   1.372   3.640  0.9498  1.1089  0.8093
 1431ETH     H3 6699   3.699   1.639   3.678  0.9048  1.8910  1.8600
 1431ETH     H4 6700   3.700   1.519   3.809  0.9688 -0.7631 -0.0577
 1431ETH     H5 6701   3.912   1.560   3.841 -0.1585 -1.5684 -0.2960
 1432ETH      C 6702   1.626   0.418   1.649 -0.7319  0.9824 -0.1644
 1432ETH     C1 6703   1.543   0.289   1.625 -0.0309 -0.1087 -0.3149
 1432ETH      O 6704   1.623   0.176   1.675 -0.2749 -0.3670  0.1369
 1432ETH      H 6705   1.715   0.402   1.586  0.6139 -0.2767  1.9060
 1432ETH     H1 6706   1.651   0.437   1.754  1.6387 -0.2688 -0.4328
 1432ETH     H2 6707   1.585   0.510   1.607 -1.1129  0.7809 -0.2398
 1432ETH     H3 6708   1.446   0.296   1.676 -0.8810  0.9730 -2.0120
 1432ETH     H4 6709   1.526   0.287   1.517 -2.1494  0.0847 -0.0294
 1432ETH     H5 6710   1.582   0.157   1.761 -0.8390  2.2861  0.5390
 1433ETH      C 6711   2.300   0.989   2.480  0.2373  0.2867  0.2444
 1433ETH     C1 6712   2.270   1.105   2.589 -0.3234  0.1512  0.2454
 1433ETH      O 6713   2.237   1.234   2.533 -0.6212  0.3863  0.4970
 1433ETH      H 6714   2.308   0.892   2.531 -0.6904  1.9139  3.7351
 1433ETH     H1 6715   2.396   1.011   2.432  0.6388  0.1001  0.9505
 1433ETH     H2 6716   2.225   0.991   2.400  1.2304  0.2714 -0.7271
 1433ETH     H3 6717   2.180   1.069   2.639 -1.6222 -1.6338 -3.0484
 1433ETH     H4 6718   2.344   1.121   2.669 -0.7134 -0.3370  0.7086
 1433ETH     H5 6719   2.275   1.308   2.583  0.3287  0.7893 -0.7692
 1434ETH      C 6720   1.663   1.743   2.271  0.8633  0.5103 -1.1339
 1434ETH     C1 6721   1.617   1.826   2.393 -0.1766  0.2709  0.4389
 1434ETH      O 6722   1.692   1.943   2.401 -0.4696 -0.4509 -0.0492
 1434ETH      H 6723   1.613   1.646   2.267  0.5818  0.4677  1.7258
 1434ETH     H1 6724   1.771   1.730   2.281  0.8178  0.0292 -1.2460
 1434ETH     H2 6725   1.646   1.792   2.174 -0.8481 -0.3671 -1.3248
 1434ETH     H3 6726   1.509   1.845   2.387 -0.7166 -1.9516  1.6775
 1434ETH     H4 6727   1.633   1.767   2.485 -0.6564  0.5114  0.6843
 1434ETH     H5 6728   1.786   1.923   2.418  0.0917  1.8747 -0.0318
 1435ETH      C 6729   2.264   3.031   1.159 -0.3381  0.1626  0.9349
 1435ETH     C1 6730   2.416   3.042   1.203  0.3300  0.2973  0.0782
 1435ETH      O 6731   2.477   2.918   1.177 -0.3940  0.4446  0.0648
 1435ETH      H 6732   2.207   3.124   1.177  1.7579  1.5291  0.8531
 1435ETH     H1 6733   2.207   2.952   1.209 -0.8078 -0.2123 -0.1531
 1435ETH     H2 6734   2.249   3.011   1.052 -1.6138 -1.3875  1.3688
 1435ETH     H3 6735   2.455   3.126   1.143 -2.7103  1.2887 -0.7008
 1435ETH     H4 6736   2.411   3.063   1.310 -5.6117  1.5382 -0.1105
 1435ETH     H5 6737   2.574   2.927   1.181 -0.4369  0.8444  0.2269
 1436ETH      C 6738   3.213   2.749   1.610 -0.2583  0.4480  0.7349
 1436ETH     C1 6739   3.268   2.849   1.717 -0.5705  0.0888  0.2866
 1436ETH      O 6740   3.337   2.956   1.650  0.3506 -0.1185  0.6990
 1436ETH      H 6741   3.285   2.689   1.553 -1.9796 -0.6653 -0.3832
 1436ETH     H1 6742   3.149   2.812   1.546 -4.2563 -1.4756  2.5145
 1436ETH     H2 6743   3.160   2.669   1.662  0.9332 -0.7884  0.0909
 1436ETH     H3 6744   3.179   2.895   1.763 -0.3041  0.0485  0.8530
 1436ETH     H4 6745   3.326   2.811   1.801 -0.1900  1.4559  0.6750
 1436ETH     H5 6746   3.415   2.975   1.706  2.4476  1.7959 -2.5462
 1437ETH      C 6747   3.230   2.759   3.757 -0.0630 -0.3584 -0.5541
 1437ETH     C1 6748   3.085   2.805   3.739  0.5260  0.3512 -0.4379
 1437ETH      O 6749   3.019   2.783   3.864  0.3231 -0.2465  0.2270
 1437ETH      H 6750   3.294   2.800   3.678  0.3897  0.6371  0.3071
 1437ETH     H1 6751   3.242   2.650   3.758  1.2866 -0.2533 -1.8879
 1437ETH     H2 6752   3.279   2.787   3.852 -0.6260 -2.5163  0.4354
 1437ETH     H3 6753   3.060   2.909   3.717 -0.6945 -0.3643 -2.7228
 1437ETH     H4 6754   3.055   2.737   3.659  2.9725 -1.5762  0.1520
 1437ETH     H5 6755   3.044   2.692   3.885  2.5507 -0.3430 -2.2183
 1438ETH      C 6756   0.383   4.124   2.468 -0.6186  0.3259 -0.9573
 1438ETH     C1 6757   0.414   4.264   2.429  0.1462  0.0456  0.0358
 1438ETH      O 6758   0.548   4.299   2.478  0.5137 -0.4957  0.1770
 1438ETH      H 6759   0.366   4.127   2.576 -1.3548 -0.7978 -1.0325
 1438ETH     H1 6760   0.474   4.063   2.464 -1.2782 -0.9653  1.6168
 1438ETH     H2 6761   0.297   4.079   2.417 -1.0692  1.4187 -1.1938
 1438ETH     H3 6762   0.420   4.282   2.320  0.3028  0.0446  0.0438
 1438ETH     H4 6763   0.335   4.330   2.466 -0.7336 -1.6298  1.2457
 1438ETH     H5 6764   0.596   4.317   2.396 -0.4877 -0.2298 -0.3694
 1439ETH      C 6765   1.087   1.192   1.735  0.6883  0.3262  0.1010
 1439ETH     C1 6766   0.985   1.308   1.721  0.6210 -0.8852 -0.7842
 1439ETH      O 6767   1.031   1.430   1.782  0.4635  0.2624  0.3637
 1439ETH      H 6768   1.071   1.116   1.657  0.0604 -1.7340  2.1233
 1439ETH     H1 6769   1.094   1.139   1.831  0.1011 -0.9959 -0.5605
 1439ETH     H2 6770   1.190   1.225   1.717  2.0088 -2.6556  1.4332
 1439ETH     H3 6771   0.980   1.328   1.613 -0.1884 -1.7406 -0.9149
 1439ETH     H4 6772   0.885   1.278   1.754  0.2374 -0.4910 -1.5650
 1439ETH     H5 6773   0.989   1.504   1.736  0.2655  0.0160  0.1476
 1440ETH      C 6774   1.595   1.751   0.924  0.3587  0.2419 -0.3544
 1440ETH     C1 6775   1.643   1.866   0.999 -0.9184  0.0354 -0.0782
 1440ETH      O 6776   1.691   1.969   0.911  0.1290  0.2684 -0.1188
 1440ETH      H 6777   1.573   1.672   0.997  0.5920  1.4112  1.0237
 1440ETH     H1 6778   1.669   1.719   0.850 -0.5822 -2.1029 -0.3527
 1440ETH     H2 6779   1.501   1.769   0.870 -0.6650 -2.4112  0.3942
 1440ETH     H3 6780   1.568   1.903   1.070 -2.0330 -3.1955  0.6300
 1440ETH     H4 6781   1.727   1.840   1.064  0.9074  2.0841 -1.4838
 1440ETH     H5 6782   1.766   2.018   0.948 -0.2547  0.7558  0.0202
 1441ETH      C 6783   2.985   0.918   3.346  0.0471 -0.4929 -0.3890
 1441ETH     C1 6784   3.023   1.000   3.476 -0.0504 -0.7409  0.3484
 1441ETH      O 6785   3.130   0.937   3.547  0.3860  0.0392  0.2595
 1441ETH      H 6786   2.913   0.974   3.286 -0.2699 -1.9931 -1.4757
 1441ETH     H1 6787   2.952   0.815   3.366 -0.5974 -0.1151  0.5749
 1441ETH     H2 6788   3.077   0.904   3.289 -0.3422  0.2678 -1.2288
 1441ETH     H3 6789   3.059   1.099   3.448 -0.2136 -0.1088  2.2172
 1441ETH     H4 6790   2.934   1.017   3.538 -1.3375  0.5444 -1.7387
 1441ETH     H5 6791   3.183   1.003   3.595  0.3169 -0.3299  0.8501
 1442ETH      C 6792   1.758   2.097   1.884 -0.0218 -0.0950  0.4577
 1442ETH     C1 6793   1.775   1.967   1.973 -0.3474  0.0424  0.5135
 1442ETH      O 6794   1.729   1.860   1.893 -0.1585  0.1111  0.3541
 1442ETH      H 6795   1.776   2.079   1.777 -0.3637  0.3147  0.3277
 1442ETH     H1 6796   1.826   2.174   1.921  1.8769 -1.7100  0.4722
 1442ETH     H2 6797   1.656   2.139   1.888 -0.8047 -1.5863 -1.6670
 1442ETH     H3 6798   1.883   1.966   1.991 -0.2314  1.6793  0.0338
 1442ETH     H4 6799   1.714   1.979   2.063 -3.4478 -1.6210 -1.1720
 1442ETH     H5 6800   1.636   1.877   1.872 -0.0109  1.5640  0.7743
 1443ETH      C 6801   4.041   0.249   0.532 -0.2222  0.0858 -0.3043
 1443ETH     C1 6802   3.947   0.377   0.537 -0.4685  0.4049  0.0337
 1443ETH      O 6803   3.923   0.425   0.408  0.7996  0.4501  0.0642
 1443ETH      H 6804   4.045   0.193   0.626 -2.7593  2.2055  1.2139
 1443ETH     H1 6805   4.145   0.274   0.508 -0.2617  2.7267  1.7205
 1443ETH     H2 6806   4.015   0.168   0.463  3.2763 -1.1731 -0.3431
 1443ETH     H3 6807   3.848   0.363   0.582  0.5107 -0.2234  2.1731
 1443ETH     H4 6808   4.001   0.450   0.598 -2.5636  1.8617  0.2448
 1443ETH     H5 6809   4.007   0.431   0.359  0.0019  0.7686 -1.3013
 1444ETH      C 6810   1.483   3.708   3.758 -0.0535 -0.1861 -0.1232
 1444ETH     C1 6811   1.417   3.794   3.864  0.5346  0.0807  0.1375
 1444ETH      O 6812   1.422   3.735   3.994  0.2657  0.1659  0.3855
 1444ETH      H 6813   1.449   3.603   3.760 -1.0622  0.1290  0.3689
 1444ETH     H1 6814   1.591   3.701   3.769  0.0473 -1.4796 -1.6283
 1444ETH     H2 6815   1.462   3.746   3.657 -2.1720 -0.2026  0.2542
 1444ETH     H3 6816   1.459   3.896   3.873 -1.7545  0.8958  3.5947
 1444ETH     H4 6817   1.313   3.806   3.832  1.0747  0.3064 -1.6499
 1444ETH     H5 6818   1.386   3.805   4.051 -0.3820 -1.2223  1.7502
 1445ETH      C 6819   0.139   1.529   3.834  0.0456  0.2152  0.2541
 1445ETH     C1 6820   0.082   1.661   3.769  0.4225  0.6840 -0.1397
 1445ETH      O 6821  -0.050   1.673   3.825 -0.2263 -0.5385 -0.5929
 1445ETH      H 6822   0.086   1.449   3.781 -0.9897  0.5209  0.8178
 1445ETH     H1 6823   0.124   1.525   3.943 -0.9333 -0.7287  0.1031
 1445ETH     H2 6824   0.247   1.524   3.813  0.3343 -1.3934  1.8360
 1445ETH     H3 6825   0.151   1.743   3.789  1.0751 -0.1049  0.9476
 1445ETH     H4 6826   0.068   1.654   3.660 -0.8574 -2.5510  0.1057
 1445ETH     H5 6827  -0.094   1.715   3.749 -0.8457 -0.4229 -0.1787
 1446ETH      C 6828   3.823   3.963   3.847 -0.2756 -0.0177 -0.8004
 1446ETH     C1 6829   3.843   3.983   3.999 -0.0818 -0.5560 -0.1416
 1446ETH      O 6830   3.892   3.871   4.069  0.0765  0.1452 -0.0788
 1446ETH      H 6831   3.755   3.879   3.834 -0.9345  0.7248 -2.3816
 1446ETH     H1 6832   3.912   3.945   3.786 -0.2185 -1.7121 -0.2624
 1446ETH     H2 6833   3.765   4.048   3.808 -0.9083 -0.4192 -0.7418
 1446ETH     H3 6834   3.912   4.066   4.018 -1.5746  0.2958  1.8129
 1446ETH     H4 6835   3.748   4.017   4.041  0.8414  1.1476  0.6696
 1446ETH     H5 6836   3.988   3.863   4.055 -0.1506 -0.5799 -1.4648
 1447ETH      C 6837   0.537   0.716   3.954 -0.5612 -0.1737  0.6419
 1447ETH     C1 6838   0.501   0.797   4.077  0.3162  0.0396 -0.1543
 1447ETH      O 6839   0.379   0.861   4.049 -0.0707 -0.3164  0.5802
 1447ETH      H 6840   0.552   0.779   3.865  2.9142 -1.0652  0.4840
 1447ETH     H1 6841   0.467   0.633   3.935  2.2471 -2.5926  0.1347
 1447ETH     H2 6842   0.641   0.684   3.960  0.1568  2.2675  3.7345
 1447ETH     H3 6843   0.486   0.726   4.160 -1.1375  1.4116  0.8235
 1447ETH     H4 6844   0.580   0.869   4.100  0.1758  0.1596 -0.0445
 1447ETH     H5 6845   0.394   0.957   4.055  0.6987 -0.5238  2.6978
 1448ETH      C 6846   3.923   4.101   1.820  0.3374  0.4232 -0.7395
 1448ETH     C1 6847   3.974   4.036   1.691 -0.3490 -0.7088 -0.0078
 1448ETH      O 6848   4.116   4.038   1.670 -0.1509  0.2476  0.2102
 1448ETH      H 6849   3.899   4.207   1.802 -0.1637  0.7490  1.5835
 1448ETH     H1 6850   4.004   4.087   1.892  1.7456 -0.0053 -2.3299
 1448ETH     H2 6851   3.826   4.061   1.851  0.0644  0.5297 -1.4318
 1448ETH     H3 6852   3.948   3.931   1.709  0.7141 -0.6434  2.3813
 1448ETH     H4 6853   3.918   4.075   1.605  0.8157  0.5233 -0.2433
 1448ETH     H5 6854   4.156   4.002   1.751 -0.6132  1.0193  0.7925
 1449ETH      C 6855   0.156   0.301   4.118  0.0154  0.1659  0.5100
 1449ETH     C1 6856   0.128   0.340   3.973  0.2983  0.1189  0.2417
 1449ETH      O 6857   0.062   0.228   3.907 -0.0862 -0.3198 -0.3338
 1449ETH      H 6858   0.058   0.313   4.166 -0.2745 -3.0895  0.9864
 1449ETH     H1 6859   0.239   0.354   4.166  0.3197 -0.5778  0.8205
 1449ETH     H2 6860   0.181   0.194   4.121 -1.6642 -0.3021 -0.7342
 1449ETH     H3 6861   0.078   0.437   3.973 -1.6522 -0.8229 -0.8392
 1449ETH     H4 6862   0.223   0.366   3.926 -0.4893  0.1187 -1.4060
 1449ETH     H5 6863   0.135   0.178   3.867  0.1623  0.3966 -0.7941
 1450ETH      C 6864   2.005   1.618   3.032 -0.3453 -0.1293 -0.2230
 1450ETH     C1 6865   2.133   1.546   3.057  0.2226 -0.8782 -0.5521
 1450ETH      O 6866   2.208   1.607   3.162 -0.0269 -1.0448 -0.2371
 1450ETH      H 6867   1.944   1.653   3.117 -1.5084 -1.4550 -0.4548
 1450ETH     H1 6868   1.940   1.554   2.971 -2.0490  1.9374 -0.6767
 1450ETH     H2 6869   2.028   1.699   2.963  1.6256  2.1223  2.8200
 1450ETH     H3 6870   2.104   1.447   3.093 -0.8190 -0.8035 -1.1606
 1450ETH     H4 6871   2.187   1.530   2.963 -2.6780 -1.0839 -2.2916
 1450ETH     H5 6872   2.281   1.658   3.122  1.1060 -1.0001  1.7518
 1451ETH      C 6873   1.338   4.166   1.642 -0.4022  0.1041 -0.1462
 1451ETH     C1 6874   1.267   4.130   1.768  0.4446 -0.7768  0.4523
 1451ETH      O 6875   1.356   4.108   1.871  0.1513 -0.4505  0.5016
 1451ETH      H 6876   1.399   4.256   1.656 -0.4609 -0.0149  0.9664
 1451ETH     H1 6877   1.271   4.196   1.560 -1.5484 -0.4396  0.5717
 1451ETH     H2 6878   1.384   4.074   1.606 -0.0543 -0.9474  2.7749
 1451ETH     H3 6879   1.194   4.207   1.795 -0.2558 -0.3682 -2.3159
 1451ETH     H4 6880   1.208   4.042   1.740 -1.5984  0.9465 -0.9847
 1451ETH     H5 6881   1.397   4.020   1.861 -1.3297 -1.0265 -0.8000
 1452ETH      C 6882   0.227   2.854   0.083 -0.2331  0.4774  0.2825
 1452ETH     C1 6883   0.231   2.898  -0.058  0.6980  0.2567  0.3492
 1452ETH      O 6884   0.250   3.040  -0.059 -0.2021 -0.6333 -0.2508
 1452ETH      H 6885   0.231   2.745   0.091  1.9233  0.3082 -1.7901
 1452ETH     H1 6886   0.140   2.902   0.130 -0.0826  0.1117  0.9343
 1452ETH     H2 6887   0.315   2.888   0.138  0.4285 -0.2688 -0.2836
 1452ETH     H3 6888   0.326   2.851  -0.089  0.1514 -0.2198 -0.6544
 1452ETH     H4 6889   0.148   2.870  -0.124  0.9437  2.8281 -1.1608
 1452ETH     H5 6890   0.186   3.084  -0.000  2.6783  0.2026  2.4883
 1453ETH      C 6891   0.604   2.775   0.115 -0.4739  0.0444 -0.2783
 1453ETH     C1 6892   0.636   2.906   0.045 -0.2632 -0.0854  0.2795
 1453ETH      O 6893   0.744   2.973   0.113 -0.0994  0.1850  0.6676
 1453ETH      H 6894   0.690   2.707   0.112 -0.8900 -0.4876 -0.2646
 1453ETH     H1 6895   0.521   2.718   0.073  0.6679 -0.5513 -1.8456
 1453ETH     H2 6896   0.579   2.797   0.219 -1.4138  1.8544 -0.8556
 1453ETH     H3 6897   0.654   2.881  -0.060 -1.4465  2.1538 -0.5458
 1453ETH     H4 6898   0.547   2.967   0.024 -0.4367 -1.2994 -2.9924
 1453ETH     H5 6899   0.717   3.003   0.201 -0.8093 -0.9069  0.8497
 1454ETH      C 6900   2.038   0.501   2.380  0.5404 -0.1319 -0.0451
 1454ETH     C1 6901   2.095   0.413   2.270 -0.6230 -0.3319 -0.1111
 1454ETH      O 6902   2.223   0.467   2.233 -0.1194  0.5013  0.2237
 1454ETH      H 6903   2.087   0.499   2.478 -0.0963  0.6769  0.3039
 1454ETH     H1 6904   1.931   0.492   2.399  0.7501 -2.1012  0.3688
 1454ETH     H2 6905   2.054   0.605   2.347  1.6987 -0.7815 -1.6589
 1454ETH     H3 6906   2.091   0.305   2.291 -0.1251 -0.6887 -1.6676
 1454ETH     H4 6907   2.029   0.425   2.184  0.0745  1.2867 -0.4604
 1454ETH     H5 6908   2.276   0.446   2.312 -2.1957  0.4004  1.7052
 1455ETH      C 6909   0.472   2.310   3.935  0.4434  0.1870  0.2905
 1455ETH     C1 6910   0.500   2.341   4.077  0.1037 -0.1457 -0.2491
 1455ETH      O 6911   0.394   2.411   4.145  0.4792  0.1861 -0.7701
 1455ETH      H 6912   0.397   2.373   3.886  0.3512 -0.5568 -0.5406
 1455ETH     H1 6913   0.458   2.202   3.927  0.5248  0.1789  0.2546
 1455ETH     H2 6914   0.562   2.324   3.874 -0.3282  0.3087 -0.8448
 1455ETH     H3 6915   0.528   2.252   4.134 -1.1603 -0.0906  0.5018
 1455ETH     H4 6916   0.588   2.406   4.075 -1.7267  2.4760 -1.4357
 1455ETH     H5 6917   0.368   2.369   4.229 -1.6343 -0.1725 -1.5316
 1456ETH      C 6918   4.215   3.385   1.291  0.0576 -0.4925 -0.0996
 1456ETH     C1 6919   4.326   3.371   1.388  0.2931 -0.1032  0.6558
 1456ETH      O 6920   4.379   3.495   1.436  0.1956  0.3698  0.3452
 1456ETH      H 6921   4.233   3.462   1.215  3.6625  0.2255  1.2795
 1456ETH     H1 6922   4.131   3.428   1.346  0.9928  0.2215  0.8153
 1456ETH     H2 6923   4.186   3.288   1.249 -0.4217 -0.4897  0.2188
 1456ETH     H3 6924   4.301   3.303   1.470  1.6378  0.4275  1.5436
 1456ETH     H4 6925   4.409   3.318   1.341 -1.1436 -2.7494  0.9251
 1456ETH     H5 6926   4.463   3.475   1.480  0.2148 -0.2635  0.0252
 1457ETH      C 6927   0.924   3.613   1.228  0.0380 -0.2948  0.6602
 1457ETH     C1 6928   0.804   3.684   1.174 -0.1927  0.2430  0.8986
 1457ETH      O 6929   0.758   3.777   1.275  0.6455  0.2922  0.2535
 1457ETH      H 6930   1.015   3.659   1.186 -1.9718  1.2348 -2.3935
 1457ETH     H1 6931   0.918   3.510   1.193 -3.9917  0.6927 -2.3147
 1457ETH     H2 6932   0.931   3.624   1.337  0.1754  0.0708  0.6169
 1457ETH     H3 6933   0.844   3.748   1.094 -0.3379 -0.0910  0.5533
 1457ETH     H4 6934   0.719   3.620   1.145 -0.0309  0.8265 -1.0295
 1457ETH     H5 6935   0.666   3.802   1.256  0.1686 -0.3677  1.5724
 1458ETH      C 6936   3.373   0.859   1.507 -1.0321  0.0501 -0.3748
 1458ETH     C1 6937   3.418   0.866   1.362 -0.3325  0.5322 -0.1853
 1458ETH      O 6938   3.483   0.995   1.356  0.1197  0.7020 -0.2389
 1458ETH      H 6939   3.455   0.880   1.576  1.8019 -2.7265 -2.5871
 1458ETH     H1 6940   3.357   0.757   1.544 -2.3482 -0.0020 -1.0067
 1458ETH     H2 6941   3.299   0.936   1.531  0.3597  1.8133 -1.3957
 1458ETH     H3 6942   3.493   0.788   1.345  0.7219  1.3148  0.7404
 1458ETH     H4 6943   3.339   0.854   1.287  0.7111 -2.0166 -0.9708
 1458ETH     H5 6944   3.488   1.037   1.443 -2.5155 -2.5710  1.7411
 1459ETH      C 6945   1.671   3.094   1.212  0.4086 -0.1639 -0.3601
 1459ETH     C1 6946   1.581   2.977   1.256 -0.7063 -0.8563 -0.7609
 1459ETH      O 6947   1.463   3.029   1.311 -0.2613 -0.2414 -0.4734
 1459ETH      H 6948   1.632   3.146   1.124  0.0997 -0.9190 -0.6761
 1459ETH     H1 6949   1.768   3.051   1.182 -0.1925 -1.7256 -0.1871
 1459ETH     H2 6950   1.694   3.167   1.290  2.2498  1.1254 -1.9915
 1459ETH     H3 6951   1.545   2.920   1.170 -0.0556 -0.4581 -1.2999
 1459ETH     H4 6952   1.635   2.911   1.324  0.0554  0.2405 -0.2711
 1459ETH     H5 6953   1.437   3.100   1.250  1.7349  0.6393 -0.3903
 1460ETH      C 6954   3.145   1.317   1.022 -0.5429  0.0177 -0.7852
 1460ETH     C1 6955   3.233   1.430   1.079 -0.5585 -0.0595 -0.8533
 1460ETH      O 6956   3.296   1.487   0.970  0.0512 -0.6093  0.2622
 1460ETH      H 6957   3.089   1.289   1.112  0.4165  1.2773  0.2341
 1460ETH     H1 6958   3.194   1.228   0.979  0.5709  1.0204 -1.6657
 1460ETH     H2 6959   3.071   1.345   0.945  0.7494 -0.7459 -2.3789
 1460ETH     H3 6960   3.165   1.508   1.115 -1.4812 -2.3610  2.8575
 1460ETH     H4 6961   3.303   1.388   1.152  0.0271 -0.2676 -1.5193
 1460ETH     H5 6962   3.230   1.500   0.899 -1.3700 -1.1313  1.4189
 1461ETH      C 6963   0.916   1.115   0.144 -0.5965  0.3785 -0.3189
 1461ETH     C1 6964   0.816   1.160   0.035 -0.2535 -0.1411  0.0591
 1461ETH      O 6965   0.717   1.056   0.014 -0.0752 -0.1136  0.3393
 1461ETH      H 6966   0.974   1.030   0.106  1.5936  1.3701  0.6323
 1461ETH     H1 6967   0.869   1.092   0.241  0.5707 -0.7319  0.0097
 1461ETH     H2 6968   0.988   1.197   0.154 -1.6432  1.2700  0.1236
 1461ETH     H3 6969   0.779   1.258   0.068 -1.4029 -0.6718  0.3912
 1461ETH     H4 6970   0.858   1.191  -0.062 -0.3890  0.9395  0.3310
 1461ETH     H5 6971   0.761   0.972   0.033  0.0430 -1.1560 -3.6427
 1462ETH      C 6972   3.161   3.937   2.509  0.1877 -0.3118  0.0294
 1462ETH     C1 6973   3.102   3.975   2.644  1.1147 -0.1498  0.3757
 1462ETH      O 6974   2.960   3.997   2.631 -0.6219  0.0820 -0.0591
 1462ETH      H 6975   3.270   3.953   2.507  0.0917  0.3308 -1.9291
 1462ETH     H1 6976   3.118   3.997   2.428 -0.7807 -2.8028 -1.4122
 1462ETH     H2 6977   3.146   3.830   2.489 -0.5092  0.1634 -2.2787
 1462ETH     H3 6978   3.109   3.898   2.722 -0.2937  1.4126  2.1085
 1462ETH     H4 6979   3.145   4.068   2.681 -0.3753  1.1916 -1.0780
 1462ETH     H5 6980   2.946   4.076   2.576 -0.9925  1.8660  2.4160
 1463ETH      C 6981   1.897   1.075   0.781  0.9758  0.3826  1.0943
 1463ETH     C1 6982   2.018   1.006   0.849 -0.2806  0.5139 -0.9816
 1463ETH      O 6983   2.086   0.925   0.749 -0.3163 -0.2767 -0.0283
 1463ETH      H 6984   1.827   1.002   0.739 -0.2258 -0.0578  3.7060
 1463ETH     H1 6985   1.926   1.136   0.695  2.5518  1.2603  2.1999
 1463ETH     H2 6986   1.855   1.152   0.846  2.4523  3.7285 -1.5791
 1463ETH     H3 6987   2.081   1.073   0.909 -0.3888  0.6661 -1.0346
 1463ETH     H4 6988   1.963   0.937   0.913  0.2224  1.2818  0.3125
 1463ETH     H5 6989   2.179   0.953   0.753 -0.6271  0.9478 -0.7075
 1464ETH      C 6990   2.515   1.872   2.345  0.2432  0.1874 -0.0747
 1464ETH     C1 6991   2.509   1.724   2.308  0.2654 -0.4786  0.3717
 1464ETH      O 6992   2.424   1.657   2.400 -0.1399 -0.3310 -0.3054
 1464ETH      H 6993   2.558   1.925   2.259  2.0116 -0.2554  0.4913
 1464ETH     H1 6994   2.582   1.895   2.428 -0.0726  2.0975 -0.3115
 1464ETH     H2 6995   2.416   1.914   2.367  0.7745  1.2574  0.3128
 1464ETH     H3 6996   2.454   1.732   2.213  1.7783  0.4146 -0.4818
 1464ETH     H4 6997   2.601   1.664   2.303  0.3619 -0.2237 -1.6107
 1464ETH     H5 6998   2.433   1.563   2.375 -1.1025 -0.4677 -0.1559
 1465ETH      C 6999   0.567   1.517   3.825 -0.3694 -0.4837  0.7050
 1465ETH     C1 7000   0.713   1.490   3.877  0.1453  0.2010  0.0559
 1465ETH      O 7001   0.790   1.486   3.763 -0.0888 -0.2389  0.8220
 1465ETH      H 7002   0.573   1.602   3.756 -1.1414  0.2831  1.5377
 1465ETH     H1 7003   0.498   1.566   3.896  0.4222 -0.5962  1.5723
 1465ETH     H2 7004   0.525   1.425   3.783 -1.2421  0.4872 -0.6423
 1465ETH     H3 7005   0.759   1.571   3.936  1.3635 -0.1829 -0.3346
 1465ETH     H4 7006   0.707   1.402   3.942  1.9764 -0.4866 -0.6594
 1465ETH     H5 7007   0.726   1.501   3.691 -0.0741  0.5341  0.9686
 1466ETH      C 7008   3.990   1.090   0.726  0.2903 -0.2322  0.2613
 1466ETH     C1 7009   4.123   1.162   0.728  0.1740 -0.0618  0.5619
 1466ETH      O 7010   4.168   1.200   0.860  0.0411  0.6350 -0.3178
 1466ETH      H 7011   3.957   1.076   0.622 -0.5363 -1.7471  0.6973
 1466ETH     H1 7012   3.913   1.145   0.781 -0.0067 -0.9198  0.5392
 1466ETH     H2 7013   3.992   0.993   0.777  1.1870  0.0031  0.7025
 1466ETH     H3 7014   4.192   1.096   0.675 -0.9288 -0.4797 -0.3980
 1466ETH     H4 7015   4.118   1.255   0.670 -1.0102 -0.1357  0.5085
 1466ETH     H5 7016   4.117   1.279   0.885  0.3176  0.9781 -0.8032
 1467ETH      C 7017   0.579   4.016   2.062 -0.3227  0.3498 -0.3045
 1467ETH     C1 7018   0.671   4.086   2.159 -0.3344 -0.6506 -0.6727
 1467ETH      O 7019   0.743   3.985   2.235 -0.3253 -0.4244  0.1445
 1467ETH      H 7020   0.524   3.931   2.104 -1.6092  1.8368  1.1360
 1467ETH     H1 7021   0.649   3.961   1.997 -2.1183 -0.1473 -1.9170
 1467ETH     H2 7022   0.520   4.080   1.995 -0.3582 -0.2089 -0.8201
 1467ETH     H3 7023   0.748   4.153   2.119  2.1784 -1.3604  2.5894
 1467ETH     H4 7024   0.616   4.154   2.224 -2.3336 -1.4608 -1.4335
 1467ETH     H5 7025   0.803   4.032   2.295 -0.3997 -0.7371  0.4693
 1468ETH      C 7026   1.175   1.595   0.714 -0.4044  0.5515  0.0866
 1468ETH     C1 7027   1.282   1.620   0.821  0.7529  0.1158  0.2908
 1468ETH      O 7028   1.243   1.554   0.942 -0.4993 -0.6375 -0.3641
 1468ETH      H 7029   1.195   1.499   0.666  0.6236 -0.2496  1.9956
 1468ETH     H1 7030   1.184   1.669   0.634 -0.2391 -2.4951 -2.9039
 1468ETH     H2 7031   1.078   1.588   0.766 -2.1951  0.4806 -3.0525
 1468ETH     H3 7032   1.382   1.594   0.784 -0.0871 -1.6562 -0.8721
 1468ETH     H4 7033   1.276   1.728   0.837  0.5920  0.3052 -0.9647
 1468ETH     H5 7034   1.258   1.610   1.020 -1.0988 -2.5936  1.2806
 1469ETH      C 7035   0.163   4.179   0.923 -0.7781 -0.1187  0.3641
 1469ETH     C1 7036   0.252   4.283   1.005 -0.3368  0.7483  0.8646
 1469ETH      O 7037   0.176   4.400   1.001  0.2833 -0.2627 -0.2826
 1469ETH      H 7038   0.222   4.092   0.893  0.1581  0.5059  0.3271
 1469ETH     H1 7039   0.111   4.222   0.837 -0.6295 -0.1387  0.2634
 1469ETH     H2 7040   0.084   4.135   0.985 -2.5385  1.3182 -0.7568
 1469ETH     H3 7041   0.271   4.256   1.110 -0.0839  1.2874  0.9636
 1469ETH     H4 7042   0.347   4.303   0.954 -0.7176 -0.0039 -0.1725
 1469ETH     H5 7043   0.239   4.475   0.996 -1.5301  1.3355 -0.6687
 1470ETH      C 7044   2.835   1.974   1.663  0.2232 -0.2341 -0.2295
 1470ETH     C1 7045   2.819   2.109   1.716  0.0540  0.2463 -0.0946
 1470ETH      O 7046   2.698   2.163   1.667  0.0818  0.3526 -0.4543
 1470ETH      H 7047   2.765   1.904   1.711  0.6297 -0.7871 -0.4325
 1470ETH     H1 7048   2.936   1.933   1.665  0.1002 -0.8221 -2.6571
 1470ETH     H2 7049   2.810   1.974   1.556 -0.1499  3.7071 -0.2996
 1470ETH     H3 7050   2.804   2.104   1.824 -1.2511  1.4312 -0.1868
 1470ETH     H4 7051   2.905   2.173   1.690 -1.1311  0.9304 -2.7206
 1470ETH     H5 7052   2.729   2.248   1.630 -2.1706  1.7467  0.6438
 1471ETH      C 7053   1.206   3.983   3.381  0.0564  0.1877  0.0236
 1471ETH     C1 7054   1.080   3.909   3.334 -0.2444  0.5712 -0.1021
 1471ETH      O 7055   1.070   3.913   3.190  0.0976  0.1735  0.5926
 1471ETH      H 7056   1.234   3.965   3.486  0.6319 -1.0406 -0.3148
 1471ETH     H1 7057   1.192   4.091   3.380 -0.0631  0.1726  0.1224
 1471ETH     H2 7058   1.294   3.965   3.317  1.3192 -1.8495  2.1428
 1471ETH     H3 7059   1.081   3.811   3.382  3.2486 -0.2166 -1.4655
 1471ETH     H4 7060   0.998   3.972   3.371 -1.3648  1.7188 -3.9798
 1471ETH     H5 7061   1.124   3.989   3.162  0.5781 -0.9906 -1.8789
 1472ETH      C 7062   3.383   1.843   0.046 -0.7029  0.0032 -0.2804
 1472ETH     C1 7063   3.487   1.815   0.157 -0.2489  0.5719 -0.6565
 1472ETH      O 7064   3.433   1.723   0.240 -0.5343  0.2611  0.2714
 1472ETH      H 7065   3.341   1.755  -0.005  2.1421 -1.0422 -1.0471
 1472ETH     H1 7066   3.426   1.906  -0.033  0.7477  0.8277  1.1089
 1472ETH     H2 7067   3.301   1.905   0.082 -0.0835  0.7850 -0.1875
 1472ETH     H3 7068   3.586   1.777   0.127 -0.6138 -0.2366 -0.8643
 1472ETH     H4 7069   3.514   1.906   0.213 -0.1511  0.7206 -0.9409
 1472ETH     H5 7070   3.372   1.673   0.184  0.6457  1.0251 -1.8070
 1473ETH      C 7071   1.314   1.001   2.178  0.0889 -1.1904 -0.0001
 1473ETH     C1 7072   1.265   1.068   2.044  0.6388 -0.0241 -0.9203
 1473ETH      O 7073   1.143   1.132   2.078 -0.1122  0.1139  0.0983
 1473ETH      H 7074   1.252   0.919   2.216  1.5433 -1.5413  1.8179
 1473ETH     H1 7075   1.324   1.081   2.252 -1.2740  1.2778 -2.3089
 1473ETH     H2 7076   1.409   0.953   2.151  1.9066  1.5505  1.1485
 1473ETH     H3 7077   1.334   1.153   2.034  0.5784  0.5937  2.6182
 1473ETH     H4 7078   1.273   0.997   1.961  2.7979 -0.6959 -0.1931
 1473ETH     H5 7079   1.159   1.172   2.165  1.4956  1.2634 -0.6668
 1474ETH      C 7080   3.441   4.241   2.466 -0.3050 -0.4312 -0.0577
 1474ETH     C1 7081   3.374   4.374   2.500  0.6267 -0.3878 -0.3679
 1474ETH      O 7082   3.366   4.387   2.637  0.6325  0.1473  0.0620
 1474ETH      H 7083   3.399   4.155   2.519 -1.6019  0.1146 -0.1731
 1474ETH     H1 7084   3.549   4.250   2.486 -0.4594  0.0173  0.5885
 1474ETH     H2 7085   3.429   4.223   2.359  0.4603  1.7938 -0.5621
 1474ETH     H3 7086   3.428   4.456   2.451 -1.4141  0.6980 -0.9312
 1474ETH     H4 7087   3.274   4.372   2.455  0.8214 -0.4310 -0.8023
 1474ETH     H5 7088   3.273   4.384   2.665  0.4340 -0.1506 -0.6152
 1475ETH      C 7089   3.430   3.228   1.321  0.5837  0.3795  0.3938
 1475ETH     C1 7090   3.306   3.292   1.266  0.3993 -0.2508 -0.9076
 1475ETH      O 7091   3.195   3.204   1.289 -0.5958  0.9041 -0.3362
 1475ETH      H 7092   3.406   3.125   1.295 -1.6573  0.6851  1.0392
 1475ETH     H1 7093   3.442   3.246   1.429  0.1363  0.1761  0.4765
 1475ETH     H2 7094   3.517   3.275   1.273 -0.6375  2.5885  0.1955
 1475ETH     H3 7095   3.298   3.391   1.313  0.0894 -0.4225 -0.5970
 1475ETH     H4 7096   3.313   3.303   1.157 -0.3852 -1.9964 -1.1690
 1475ETH     H5 7097   3.233   3.117   1.308 -0.1694  1.2732  0.5699
 1476ETH      C 7098   2.982   1.714   3.862 -0.1520 -0.0011  0.4016
 1476ETH     C1 7099   2.897   1.681   3.981  0.8563  0.6781  0.2370
 1476ETH      O 7100   2.805   1.793   3.993 -0.0366 -0.0354 -0.4622
 1476ETH      H 7101   3.051   1.798   3.878 -0.2986  0.1475  0.2652
 1476ETH     H1 7102   2.927   1.726   3.767 -1.0496 -0.6871  0.8180
 1476ETH     H2 7103   3.045   1.626   3.846 -1.0839 -0.4376 -1.1032
 1476ETH     H3 7104   2.848   1.584   3.965  1.6553  0.6164 -2.2854
 1476ETH     H4 7105   2.970   1.683   4.063 -0.8512  0.4749  1.8239
 1476ETH     H5 7106   2.765   1.784   4.081  1.6682 -1.7337  0.2305
 1477ETH      C 7107   4.085   2.189   2.090  0.2482  0.1495  0.2403
 1477ETH     C1 7108   3.958   2.259   2.118  0.2765 -0.4288 -0.1347
 1477ETH      O 7109   3.950   2.378   2.038  0.2620 -0.1009 -0.1824
 1477ETH      H 7110   4.088   2.087   2.130  2.3220 -0.2216 -0.7051
 1477ETH     H1 7111   4.169   2.238   2.141 -2.3726  1.0067  4.2313
 1477ETH     H2 7112   4.100   2.190   1.982  0.7510 -0.1446  0.3045
 1477ETH     H3 7113   3.873   2.190   2.107 -0.7754  1.0674 -2.2026
 1477ETH     H4 7114   3.953   2.283   2.225 -1.5260 -0.6902 -0.1307
 1477ETH     H5 7115   4.034   2.426   2.048 -0.9485  2.4662 -1.2067
 1478ETH      C 7116   1.547   0.507   3.179  0.4589 -0.2314 -0.2843
 1478ETH     C1 7117   1.472   0.462   3.309  0.1974  0.3456  1.0584
 1478ETH      O 7118   1.494   0.559   3.408 -0.2217  0.2536 -0.2000
 1478ETH      H 7119   1.536   0.427   3.106  0.0174  0.3413 -0.8660
 1478ETH     H1 7120   1.653   0.530   3.190  0.2763 -0.0766  1.3713
 1478ETH     H2 7121   1.490   0.586   3.127  0.0216 -0.3157  0.0570
 1478ETH     H3 7122   1.364   0.449   3.295  0.3790 -0.0543 -0.1054
 1478ETH     H4 7123   1.516   0.363   3.329  0.5783 -0.2278 -2.0957
 1478ETH     H5 7124   1.474   0.642   3.361 -0.2737  1.3954  1.7400
 1479ETH      C 7125   3.277   1.258   1.412 -0.0582 -0.2596 -0.9159
 1479ETH     C1 7126   3.310   1.249   1.566  0.3517 -0.1096  0.2846
 1479ETH      O 7127   3.423   1.164   1.591 -0.2858  0.1615 -0.3610
 1479ETH      H 7128   3.218   1.348   1.391 -0.5802 -0.6016 -0.9320
 1479ETH     H1 7129   3.211   1.173   1.393  0.2175 -0.9104  0.8860
 1479ETH     H2 7130   3.368   1.263   1.350  0.5618 -0.1445 -0.0205
 1479ETH     H3 7131   3.335   1.349   1.604  1.3948  1.1935 -3.3802
 1479ETH     H4 7132   3.221   1.202   1.609  1.1451 -2.2738 -0.3160
 1479ETH     H5 7133   3.505   1.216   1.580  0.0705 -0.2780  0.1954
 1480ETH      C 7134   1.293   0.842   3.628  0.0040  0.4324  0.2979
 1480ETH     C1 7135   1.279   0.684   3.628 -0.3343 -0.2994 -0.2213
 1480ETH      O 7136   1.381   0.633   3.721  0.0813 -0.3198  0.1235
 1480ETH      H 7137   1.395   0.877   3.648  0.3412 -0.3885  0.0500
 1480ETH     H1 7138   1.210   0.875   3.691 -3.0583 -3.9325 -0.9842
 1480ETH     H2 7139   1.267   0.883   3.530  2.9869 -0.8806 -1.1817
 1480ETH     H3 7140   1.183   0.644   3.663 -0.4861 -0.4783 -0.8381
 1480ETH     H4 7141   1.298   0.642   3.528  0.1590  1.3808 -0.8632
 1480ETH     H5 7142   1.457   0.606   3.666 -0.5487 -1.9150 -0.0172
 1481ETH      C 7143   1.015   2.229   3.156 -0.3126 -0.1807  0.0478
 1481ETH     C1 7144   0.977   2.082   3.165 -0.2079 -0.1710 -0.0442
 1481ETH      O 7145   1.092   2.002   3.147  0.6426  0.8486 -0.1823
 1481ETH      H 7146   1.085   2.249   3.074 -0.3557  0.1519  0.0898
 1481ETH     H1 7147   1.043   2.276   3.251 -0.0698  1.7942 -0.9552
 1481ETH     H2 7148   0.927   2.288   3.127  0.9505  1.6902 -0.1763
 1481ETH     H3 7149   0.924   2.055   3.257  1.5409 -2.5196  0.3707
 1481ETH     H4 7150   0.911   2.063   3.079 -0.6102 -0.2145  0.2693
 1481ETH     H5 7151   1.169   2.029   3.199  0.2869 -0.4918  1.1318
 1482ETH      C 7152   3.460   3.935   3.287 -0.3009 -0.2963  0.7695
 1482ETH     C1 7153   3.446   3.876   3.422 -0.0062 -0.6970 -0.2437
 1482ETH      O 7154   3.537   3.935   3.511 -0.1080  0.1653  0.4473
 1482ETH      H 7155   3.422   3.867   3.211  1.4454 -0.0126 -0.4097
 1482ETH     H1 7156   3.565   3.955   3.262 -0.9781  0.8715 -1.3743
 1482ETH     H2 7157   3.415   4.035   3.289 -1.6258 -0.8649  0.5813
 1482ETH     H3 7158   3.344   3.894   3.459 -0.1864 -0.7190 -0.7215
 1482ETH     H4 7159   3.455   3.767   3.415 -0.0594 -0.6388 -1.3647
 1482ETH     H5 7160   3.567   3.867   3.572  0.1514  2.3936  2.9779
 1483ETH      C 7161   0.212   0.982   3.744  0.1905 -0.4961  0.1651
 1483ETH     C1 7162   0.284   1.113   3.799 -0.1960  1.4729  0.2593
 1483ETH      O 7163   0.342   1.185   3.692 -0.3927 -0.1660  0.9453
 1483ETH      H 7164   0.127   1.004   3.678 -0.3032  1.0636  1.2549
 1483ETH     H1 7165   0.163   0.933   3.829 -0.7981 -1.5407 -0.9650
 1483ETH     H2 7166   0.273   0.906   3.695  0.0075  0.5453 -1.7693
 1483ETH     H3 7167   0.218   1.174   3.861 -2.7446 -2.1272  1.4937
 1483ETH     H4 7168   0.358   1.080   3.872 -1.0242 -0.5509  0.2775
 1483ETH     H5 7169   0.370   1.120   3.625  0.1477  1.0631 -0.0641
 1484ETH      C 7170   2.227   0.586   3.909  0.0172  0.2461 -0.0946
 1484ETH     C1 7171   2.345   0.501   3.852 -0.2948  0.4850  0.2239
 1484ETH      O 7172   2.292   0.366   3.844 -0.5348  0.1238  0.3845
 1484ETH      H 7173   2.258   0.691   3.902  0.4320  0.0784 -0.9186
 1484ETH     H1 7174   2.202   0.566   4.014  3.1201  1.0435  0.9153
 1484ETH     H2 7175   2.144   0.561   3.842 -1.5810 -0.6823  2.1198
 1484ETH     H3 7176   2.377   0.530   3.752  0.2132 -1.7745 -0.3201
 1484ETH     H4 7177   2.443   0.513   3.900  0.5173 -1.1033 -0.9898
 1484ETH     H5 7178   2.272   0.346   3.937 -1.5101  2.2633  0.7087
 1485ETH      C 7179   3.253   1.782   3.523  0.0059 -0.3601  0.0341
 1485ETH     C1 7180   3.391   1.765   3.459 -0.1998  0.5631  0.5160
 1485ETH      O 7181   3.419   1.618   3.455 -0.3218 -0.9260  0.1634
 1485ETH      H 7182   3.229   1.889   3.523 -0.6286 -0.4791  1.1592
 1485ETH     H1 7183   3.239   1.745   3.625 -1.3540 -2.5708 -0.8878
 1485ETH     H2 7184   3.180   1.722   3.468 -2.2415  1.4122  0.8979
 1485ETH     H3 7185   3.393   1.795   3.353 -3.2153  0.0448  0.2235
 1485ETH     H4 7186   3.467   1.827   3.509 -1.7443  1.3571  1.9698
 1485ETH     H5 7187   3.488   1.604   3.388  0.0346  1.7069 -0.1341
 1486ETH      C 7188   0.555   3.140   0.562 -0.2928  0.0607  0.8801
 1486ETH     C1 7189   0.566   3.016   0.474  0.3676  0.2204 -0.6686
 1486ETH      O 7190   0.674   3.041   0.381  0.1754 -0.5151 -0.1818
 1486ETH      H 7191   0.653   3.167   0.604 -0.8703 -0.7129  2.8235
 1486ETH     H1 7192   0.493   3.098   0.641  0.6127  0.8555  2.0405
 1486ETH     H2 7193   0.511   3.221   0.502 -2.0592 -3.1926 -2.6778
 1486ETH     H3 7194   0.600   2.936   0.540 -1.1548  1.9715  2.4625
 1486ETH     H4 7195   0.470   3.002   0.423  1.9923 -0.4316 -3.7881
 1486ETH     H5 7196   0.657   3.130   0.345 -2.7509 -0.5921  0.7651
 1487ETH      C 7197   1.710   0.601   0.529 -0.1246 -0.4899 -0.6420
 1487ETH     C1 7198   1.593   0.647   0.438  0.6219  0.4167 -0.3904
 1487ETH      O 7199   1.483   0.697   0.516 -0.3080 -0.5343 -0.5649
 1487ETH      H 7200   1.675   0.520   0.594  1.6740 -2.1535 -1.6355
 1487ETH     H1 7201   1.749   0.682   0.592 -0.7969  0.9351 -1.9873
 1487ETH     H2 7202   1.790   0.562   0.466 -0.3127  0.6452 -1.6204
 1487ETH     H3 7203   1.631   0.725   0.371  1.9119 -0.5620 -0.8647
 1487ETH     H4 7204   1.562   0.565   0.372  0.8640  0.0479 -0.0577
 1487ETH     H5 7205   1.454   0.629   0.579  0.0424  2.3251  3.0157
 1488ETH      C 7206   4.213   1.098   2.773  0.0356 -0.0630  0.5617
 1488ETH     C1 7207   4.145   1.180   2.661 -0.2514 -0.0344  0.5318
 1488ETH      O 7208   4.022   1.128   2.640 -0.1879  0.5127  0.6506
 1488ETH      H 7209   4.305   1.155   2.792 -0.0178 -0.4580  2.1805
 1488ETH     H1 7210   4.235   0.994   2.745 -1.5323 -0.0570 -0.8698
 1488ETH     H2 7211   4.171   1.105   2.874 -1.6948 -0.9714 -0.0658
 1488ETH     H3 7212   4.131   1.281   2.700 -3.4576  0.0711 -0.6018
 1488ETH     H4 7213   4.213   1.176   2.574  2.5985  1.4307  2.5375
 1488ETH     H5 7214   3.962   1.202   2.660  0.5550  0.7004  2.3488
 1489ETH      C 7215   1.030   2.598   3.490  0.2544 -0.0411 -0.5574
 1489ETH     C1 7216   1.019   2.745   3.430  0.0188 -0.6479 -0.6912
 1489ETH      O 7217   1.137   2.814   3.452 -0.0806 -0.0797 -0.1299
 1489ETH      H 7218   1.118   2.544   3.456 -0.3855 -0.3758 -1.7530
 1489ETH     H1 7219   0.941   2.544   3.455  0.4574 -0.1058 -0.9784
 1489ETH     H2 7220   1.045   2.612   3.598  1.4601 -0.5676 -0.6430
 1489ETH     H3 7221   0.995   2.742   3.323 -1.0817  0.3660 -0.4904
 1489ETH     H4 7222   0.930   2.791   3.474  0.9069  1.1009 -0.6628
 1489ETH     H5 7223   1.156   2.809   3.547  0.7455 -1.2546 -0.3413
 1490ETH      C 7224   4.146   3.088   0.806  0.6197  0.0128 -0.2438
 1490ETH     C1 7225   4.092   3.126   0.948  0.0218 -0.2431  0.3030
 1490ETH      O 7226   3.951   3.157   0.940 -0.2229 -0.1357 -0.4257
 1490ETH      H 7227   4.108   3.161   0.733 -3.0991  2.1736  3.3828
 1490ETH     H1 7228   4.098   2.991   0.788  1.1764 -0.6446  1.5666
 1490ETH     H2 7229   4.253   3.071   0.794  1.1229  2.9217 -0.5257
 1490ETH     H3 7230   4.123   3.050   1.021  1.4542 -1.8165 -1.8421
 1490ETH     H4 7231   4.138   3.223   0.970 -1.1206  0.5348 -0.6276
 1490ETH     H5 7232   3.907   3.077   0.906  0.5782 -0.4243 -0.8105
 1491ETH      C 7233   0.955   1.265   1.207 -0.0544  0.9421 -0.1462
 1491ETH     C1 7234   1.007   1.305   1.061 -0.0053 -0.4541 -0.4356
 1491ETH      O 7235   1.147   1.303   1.061 -0.3142  0.0582 -0.2981
 1491ETH      H 7236   0.971   1.332   1.292  1.2711  2.4662 -1.5084
 1491ETH     H1 7237   0.996   1.166   1.228 -0.1020  1.1899  1.2088
 1491ETH     H2 7238   0.846   1.259   1.195 -0.0404  2.1801 -1.1237
 1491ETH     H3 7239   0.960   1.234   0.992 -0.3740 -1.3539  0.7159
 1491ETH     H4 7240   0.971   1.406   1.039 -0.0932 -0.1431  1.0154
 1491ETH     H5 7241   1.186   1.374   1.008  1.5964 -0.8153 -0.1544
 1492ETH      C 7242   2.169   3.604   0.888  0.4349  0.1601  0.0664
 1492ETH     C1 7243   2.204   3.755   0.894  0.0248  0.5303 -0.0780
 1492ETH      O 7244   2.287   3.758   1.005 -0.0219  0.2757 -0.1311
 1492ETH      H 7245   2.137   3.558   0.982  2.3997 -2.9498 -0.6271
 1492ETH     H1 7246   2.253   3.548   0.845 -1.1887 -0.7825 -2.0130
 1492ETH     H2 7247   2.097   3.582   0.809  0.2185 -1.5765  0.7067
 1492ETH     H3 7248   2.253   3.783   0.801  0.6946  0.1450  0.1546
 1492ETH     H4 7249   2.117   3.817   0.920 -0.9898 -0.8988  0.0354
 1492ETH     H5 7250   2.243   3.709   1.077  0.0569  0.6849  0.1957
 1493ETH      C 7251   2.985   0.532   0.913 -0.0510 -0.6091  0.3075
 1493ETH     C1 7252   3.068   0.521   1.040 -0.7543 -0.7011  0.3923
 1493ETH      O 7253   3.191   0.590   1.021  0.9019  0.1949 -0.3494
 1493ETH      H 7254   3.042   0.497   0.826 -0.2694  2.6565 -1.3071
 1493ETH     H1 7255   2.935   0.629   0.899 -1.3106 -1.1251  1.0332
 1493ETH     H2 7256   2.901   0.463   0.926  0.0430 -1.2883 -2.1781
 1493ETH     H3 7257   3.034   0.554   1.139  3.3963  0.2246  1.7216
 1493ETH     H4 7258   3.098   0.416   1.046 -2.0789 -1.2682 -1.9155
 1493ETH     H5 7259   3.256   0.540   1.073  0.5838 -1.3222 -1.3441
 1494ETH      C 7260   3.210   1.500   2.574 -0.1404 -0.1996 -0.0730
 1494ETH     C1 7261   3.286   1.507   2.448 -0.4091  0.2627  0.1393
 1494ETH      O 7262   3.398   1.606   2.460 -0.7178  0.2604 -0.1217
 1494ETH      H 7263   3.116   1.447   2.553 -1.0269  1.4799 -0.6071
 1494ETH     H1 7264   3.185   1.602   2.608  1.0362 -0.0096  0.2629
 1494ETH     H2 7265   3.274   1.453   2.649 -0.4040 -0.8703 -0.2667
 1494ETH     H3 7266   3.334   1.410   2.427 -0.6348  0.2731 -0.4392
 1494ETH     H4 7267   3.212   1.523   2.369  1.0706 -3.5893 -2.3207
 1494ETH     H5 7268   3.353   1.692   2.453 -1.8282 -0.1946  1.0550
 1495ETH      C 7269   1.535   0.715   0.893 -0.2306  0.2276 -0.4614
 1495ETH     C1 7270   1.606   0.658   1.011  0.0905  0.0185  0.6347
 1495ETH      O 7271   1.558   0.526   1.036 -0.7148 -0.5085 -0.0140
 1495ETH      H 7272   1.435   0.737   0.932 -0.1041  0.6119 -0.3511
 1495ETH     H1 7273   1.519   0.639   0.816 -0.4020 -0.1715 -0.0324
 1495ETH     H2 7274   1.574   0.807   0.847  1.0576 -0.0184  0.1028
 1495ETH     H3 7275   1.712   0.649   0.984  0.0042  0.8340 -0.0415
 1495ETH     H4 7276   1.576   0.723   1.094 -1.7806  0.1860 -0.1218
 1495ETH     H5 7277   1.629   0.460   1.025 -1.0142 -1.3803  2.7233
 1496ETH      C 7278   2.796   1.842   3.277  0.4734 -0.1160  0.6501
 1496ETH     C1 7279   2.948   1.843   3.243  0.1538 -0.4342  0.0989
 1496ETH      O 7280   3.004   1.712   3.249 -0.3196  0.5925 -0.3173
 1496ETH      H 7281   2.746   1.936   3.300 -0.0575 -0.6398  1.7205
 1496ETH     H1 7282   2.783   1.777   3.364  0.1736 -2.1572 -0.8466
 1496ETH     H2 7283   2.742   1.788   3.198  0.5353 -1.3879  1.4426
 1496ETH     H3 7284   2.949   1.866   3.136 -3.3033 -0.9558 -0.1695
 1496ETH     H4 7285   3.003   1.915   3.304 -0.6329 -0.9745  1.4826
 1496ETH     H5 7286   3.087   1.716   3.199 -0.3857 -2.4167 -0.8534
 1497ETH      C 7287   0.405   3.520   1.018  0.0188  0.3880 -0.0271
 1497ETH     C1 7288   0.505   3.408   1.005  0.2462  0.0656 -0.2564
 1497ETH      O 7289   0.539   3.361   1.141 -0.4333  0.1962 -0.1923
 1497ETH      H 7290   0.441   3.597   1.088 -0.4927 -0.3609  1.0892
 1497ETH     H1 7291   0.314   3.489   1.070  0.0342  0.9573  0.3549
 1497ETH     H2 7292   0.381   3.553   0.917 -0.2081 -1.1983 -0.5084
 1497ETH     H3 7293   0.449   3.340   0.939 -1.0098 -1.1932  2.0069
 1497ETH     H4 7294   0.587   3.450   0.945  1.1045  0.1262  0.9393
 1497ETH     H5 7295   0.636   3.369   1.147 -0.4135  0.2925 -0.5878
 1498ETH      C 7296   1.202   1.058   4.133 -0.8034  0.4887  0.1503
 1498ETH     C1 7297   1.243   1.120   4.264 -0.1266 -0.4759  0.0565
 1498ETH      O 7298   1.212   1.257   4.256 -0.3273  0.4945  0.2306
 1498ETH      H 7299   1.247   1.120   4.054 -1.5693  0.7376 -0.1110
 1498ETH     H1 7300   1.094   1.061   4.114 -0.8491  2.7541  0.4333
 1498ETH     H2 7301   1.239   0.958   4.107  1.2364  0.6423  2.1820
 1498ETH     H3 7302   1.185   1.071   4.343 -2.7303  0.8386 -0.9209
 1498ETH     H4 7303   1.352   1.107   4.269 -0.2088 -1.2088  0.0940
 1498ETH     H5 7304   1.232   1.291   4.167  2.3780 -2.3778 -0.4312
 1499ETH      C 7305   1.297   3.101   3.412 -0.8547 -1.1944 -0.2915
 1499ETH     C1 7306   1.230   3.238   3.451 -0.5723 -0.2725 -0.4923
 1499ETH      O 7307   1.322   3.342   3.470 -0.2012 -0.2266  0.3026
 1499ETH      H 7308   1.209   3.052   3.370 -0.5868 -1.3258 -0.7039
 1499ETH     H1 7309   1.331   3.047   3.501 -0.1821 -0.6459 -0.2020
 1499ETH     H2 7310   1.365   3.105   3.326  0.6314  1.0743  0.8628
 1499ETH     H3 7311   1.161   3.269   3.372 -0.4702 -1.0109 -0.8747
 1499ETH     H4 7312   1.169   3.228   3.542  0.0666  4.4130  0.7171
 1499ETH     H5 7313   1.272   3.423   3.490 -1.0241 -0.2646 -1.4055
 1500ETH      C 7314   1.827   2.115   4.075  0.0621  0.2110 -0.3855
 1500ETH     C1 7315   1.779   2.122   3.928 -0.5742  0.6272  0.3672
 1500ETH      O 7316   1.833   2.249   3.887 -0.0160  0.2671  0.0046
 1500ETH      H 7317   1.806   2.015   4.115 -1.6087  0.9220  0.5929
 1500ETH     H1 7318   1.774   2.182   4.143  0.3975  0.0031  0.0868
 1500ETH     H2 7319   1.934   2.137   4.087  0.1091 -0.6019  0.9448
 1500ETH     H3 7320   1.828   2.038   3.877  1.4636  0.1889  2.8143
 1500ETH     H4 7321   1.671   2.122   3.910 -0.1312  0.4021 -2.8374
 1500ETH     H5 7322   1.843   2.247   3.790  1.9581 -1.2806  0.1805
 1501ETH      C 7323   3.736   0.718   1.970 -0.8427 -0.6462  0.4521
 1501ETH     C1 7324   3.812   0.711   1.840 -0.0124  0.1501  0.9197
 1501ETH      O 7325   3.928   0.631   1.853 -0.0742  0.1861 -0.2632
 1501ETH      H 7326   3.672   0.806   1.960  1.4851  1.0226 -0.6967
 1501ETH     H1 7327   3.802   0.738   2.055  0.1827 -0.6731 -0.3272
 1501ETH     H2 7328   3.667   0.634   1.985 -3.2918  0.9524 -1.1439
 1501ETH     H3 7329   3.748   0.675   1.759  0.8236  0.9585 -0.1207
 1501ETH     H4 7330   3.835   0.810   1.801  1.5294 -0.6940 -0.4517
 1501ETH     H5 7331   3.894   0.546   1.886  0.1004  0.3291  0.2966
 1502ETH      C 7332   0.704   1.909   0.332 -0.5022  0.2333 -0.0329
 1502ETH     C1 7333   0.635   2.033   0.268  0.0514 -0.2418  0.2576
 1502ETH      O 7334   0.523   1.987   0.192 -0.3099  0.1687 -0.3019
 1502ETH      H 7335   0.641   1.856   0.404  1.3232  1.0541  2.3171
 1502ETH     H1 7336   0.806   1.937   0.361 -0.2522  2.5234 -2.7040
 1502ETH     H2 7337   0.712   1.844   0.245 -0.1207 -1.0782  0.9546
 1502ETH     H3 7338   0.612   2.110   0.342  1.2392  0.6058 -0.2150
 1502ETH     H4 7339   0.704   2.084   0.199  1.2150 -1.9912  0.0643
 1502ETH     H5 7340   0.461   1.951   0.257  2.3365 -1.5115  1.5354
 1503ETH      C 7341   2.437   2.122   0.365  0.7461 -0.3849  0.3320
 1503ETH     C1 7342   2.363   2.083   0.501 -0.1848 -0.1198 -0.1916
 1503ETH      O 7343   2.403   2.177   0.601  0.5488  0.0471  0.2020
 1503ETH      H 7344   2.424   2.227   0.339  0.1590 -0.6938 -0.6751
 1503ETH     H1 7345   2.391   2.055   0.291  1.8392  0.9569 -1.6409
 1503ETH     H2 7346   2.544   2.100   0.374  0.3261 -1.7372  2.8370
 1503ETH     H3 7347   2.254   2.076   0.493 -0.0982 -2.2813 -0.0803
 1503ETH     H4 7348   2.407   1.987   0.531 -0.6225 -0.5375 -0.8562
 1503ETH     H5 7349   2.414   2.264   0.559 -2.8051  0.8372  0.6514
 1504ETH      C 7350   0.640   0.816   3.471 -0.1732 -0.2016  0.5824
 1504ETH     C1 7351   0.569   0.917   3.565 -0.0395 -0.7245 -0.3783
 1504ETH      O 7352   0.472   0.999   3.502 -0.5041  0.3001  0.6525
 1504ETH      H 7353   0.629   0.710   3.495 -0.8441 -0.8133 -2.1056
 1504ETH     H1 7354   0.744   0.843   3.451 -0.4355 -0.4883 -1.3311
 1504ETH     H2 7355   0.585   0.823   3.376 -0.1483  1.4272  0.6556
 1504ETH     H3 7356   0.534   0.863   3.654  0.3686 -1.9742 -0.9551
 1504ETH     H4 7357   0.653   0.980   3.597  0.1454 -1.0869 -0.1414
 1504ETH     H5 7358   0.407   0.939   3.461  0.4447 -0.6243  0.4633
 1505ETH      C 7359   3.741   3.440   3.089 -0.2352 -0.7623  0.4092
 1505ETH     C1 7360   3.701   3.573   3.140 -0.5099 -0.4564  0.9274
 1505ETH      O 7361   3.650   3.554   3.274 -0.0262 -0.2622 -0.0661
 1505ETH      H 7362   3.664   3.363   3.093 -0.5716 -0.4245  0.4838
 1505ETH     H1 7363   3.833   3.395   3.128  1.1744 -1.4164 -3.2604
 1505ETH     H2 7364   3.761   3.463   2.983 -0.5822 -1.6004  0.1512
 1505ETH     H3 7365   3.790   3.636   3.150 -0.9205  0.9302 -2.7349
 1505ETH     H4 7366   3.631   3.632   3.080  0.6240 -1.5043 -1.5443
 1505ETH     H5 7367   3.724   3.516   3.324  0.2288 -0.5607 -0.6579
 1506ETH      C 7368   3.977   3.008   4.143  0.6464 -0.4341  0.0371
 1506ETH     C1 7369   4.118   2.971   4.096  0.2650  0.1333  0.1654
 1506ETH      O 7370   4.127   2.874   3.996  0.4938 -0.3457 -0.2508
 1506ETH      H 7371   3.928   2.912   4.164  0.5381 -0.4621 -0.3296
 1506ETH     H1 7372   3.925   3.063   4.064  1.1386 -1.0071 -0.7091
 1506ETH     H2 7373   3.987   3.065   4.236  1.0382  0.6973 -0.6773
 1506ETH     H3 7374   4.175   3.058   4.061  0.6637 -0.5087 -0.8359
 1506ETH     H4 7375   4.172   2.933   4.183  0.0129 -2.3808 -0.6929
 1506ETH     H5 7376   4.156   2.791   4.038 -3.2358 -1.7644 -0.0868
 1507ETH      C 7377   3.259   3.551   0.733  0.7454  0.5298  0.4016
 1507ETH     C1 7378   3.256   3.399   0.756 -0.7654  0.1213  0.3477
 1507ETH      O 7379   3.278   3.373   0.891 -0.5688  0.5308 -0.0424
 1507ETH      H 7380   3.198   3.568   0.644 -0.7175 -3.0190  0.5543
 1507ETH     H1 7381   3.361   3.585   0.713  0.7782 -0.0768 -0.5048
 1507ETH     H2 7382   3.210   3.608   0.813 -1.7366  0.7561 -1.1796
 1507ETH     H3 7383   3.159   3.358   0.723 -0.4487  0.7653 -1.5547
 1507ETH     H4 7384   3.326   3.341   0.695  1.5943  0.5165  2.5366
 1507ETH     H5 7385   3.218   3.428   0.944  0.6544  0.8456  1.0898
 1508ETH      C 7386   3.416   0.623   3.932 -0.3682  0.4769  0.4858
 1508ETH     C1 7387   3.455   0.602   4.069  0.1112  0.4513 -0.0841
 1508ETH      O 7388   3.580   0.524   4.070 -0.1454  0.3353 -0.3903
 1508ETH      H 7389   3.428   0.534   3.869  0.9738  0.6657  0.4411
 1508ETH     H1 7390   3.472   0.702   3.881 -1.3431 -0.0778 -1.5494
 1508ETH     H2 7391   3.313   0.661   3.933 -1.6390 -2.5758 -0.8109
 1508ETH     H3 7392   3.469   0.696   4.124 -1.9685  1.6894 -1.5356
 1508ETH     H4 7393   3.379   0.545   4.124  2.0278 -1.3671  0.8349
 1508ETH     H5 7394   3.598   0.497   3.978  0.3123  0.6329 -0.3949
 1509ETH      C 7395   0.376   1.330   1.026 -0.4877  0.4359  0.3449
 1509ETH     C1 7396   0.369   1.224   0.914  0.3659  0.3663 -0.1040
 1509ETH      O 7397   0.369   1.096   0.972  0.7208  0.4753  0.0259
 1509ETH      H 7398   0.449   1.302   1.102 -1.5512 -0.8806  0.9195
 1509ETH     H1 7399   0.286   1.336   1.088  0.9879  0.8518  2.5525
 1509ETH     H2 7400   0.381   1.435   0.997  1.5479  0.8647  1.9860
 1509ETH     H3 7401   0.270   1.241   0.868  1.7279  0.1565 -3.4052
 1509ETH     H4 7402   0.446   1.222   0.836 -0.5641 -0.4119 -1.0507
 1509ETH     H5 7403   0.279   1.061   0.968  2.1609 -3.4809 -2.5474
 1510ETH      C 7404   4.239   1.190   2.235 -0.0773 -0.0898 -1.3173
 1510ETH     C1 7405   4.101   1.121   2.222  0.2826  0.2138  0.3823
 1510ETH      O 7406   4.026   1.178   2.110 -0.1594  0.7961 -0.0576
 1510ETH      H 7407   4.293   1.169   2.328 -2.1926  1.9790  0.5085
 1510ETH     H1 7408   4.217   1.298   2.238  1.2836  0.2351  1.9951
 1510ETH     H2 7409   4.296   1.159   2.147  1.3615 -0.9732 -0.1306
 1510ETH     H3 7410   4.115   1.013   2.218 -2.3844 -0.2417  1.3802
 1510ETH     H4 7411   4.048   1.140   2.316  1.9914  4.0559  0.7598
 1510ETH     H5 7412   3.938   1.158   2.146 -0.1399 -0.5296 -0.6678
   4.26148   4.26148   4.26148
