CLS single chain in water
 4712
    1CLSA    H1    1   0.995   2.229   0.548
    1CLSA    C1    2   1.083   2.219   0.612
    1CLSA    C2    3   1.328   2.292   0.742
    1CLSA    C3    4   1.080   2.325   0.725
    1CLSA    C4    5   1.210   2.233   0.528
    1CLSA    C5    6   1.335   2.205   0.613
    1CLSA    H2    7   1.417   2.355   0.748
    1CLSA    H3    8   1.078   2.118   0.655
    1CLSA    H4    9   1.216   2.335   0.487
    1CLSA    H5   10   1.327   2.102   0.650
    1CLSA    H6   11   1.019   2.408   0.687
    1CLSA    O1   12   1.201   2.140   0.422
    1CLSA    H7   13   1.288   2.145   0.380
    1CLSA    O2   14   1.457   2.218   0.535
    1CLSA    H8   15   1.529   2.237   0.598
    1CLSA    O3   16   1.212   2.377   0.745
    1CLSA    C6   17   1.012   2.284   0.861
    1CLSA    H9   18   1.018   2.373   0.926
    1CLSA   H10   19   0.906   2.263   0.843
    1CLSA    O4   20   1.071   2.173   0.930
    1CLSA   H11   21   1.163   2.169   0.898
    1CLSA    O5   22   1.318   2.205   0.855
    2CLSB    C7   23   1.412   2.239   0.960
    2CLSB    C8   24   1.432   2.296   1.200
    2CLSB    C9   25   1.331   2.258   1.090
    2CLSB   C10   26   1.517   2.126   0.976
    2CLSB   C11   27   1.548   2.193   1.205
    2CLSB   H12   28   1.264   2.343   1.076
    2CLSB   H13   29   1.472   2.396   1.178
    2CLSB   H14   30   1.468   2.035   1.014
    2CLSB   H15   31   1.506   2.100   1.245
    2CLSB   H16   32   1.463   2.334   0.937
    2CLSB    O6   33   1.612   2.173   1.077
    2CLSB   C12   34   1.591   2.086   0.846
    2CLSB   H17   35   1.674   2.019   0.871
    2CLSB   H18   36   1.522   2.029   0.782
    2CLSB    O7   37   1.640   2.199   0.773
    2CLSB   H19   38   1.722   2.225   0.818
    2CLSB    O8   39   1.363   2.296   1.322
    2CLSB   H20   40   1.279   2.255   1.295
    2CLSB    O9   41   1.257   2.138   1.128
    2CLSB   H21   42   1.176   2.132   1.073
    2CLSB   O10   43   1.646   2.248   1.295
    3CLSA   C13   44   1.732   2.153   1.354
    3CLSA   C14   45   1.992   2.140   1.494
    3CLSA   C15   46   1.752   2.197   1.501
    3CLSA   C16   47   1.868   2.157   1.273
    3CLSA   C17   48   1.979   2.086   1.349
    3CLSA   H22   49   2.024   2.245   1.499
    3CLSA   H23   50   1.688   2.053   1.351
    3CLSA   H24   51   1.896   2.263   1.268
    3CLSA   H25   52   1.957   1.979   1.357
    3CLSA   H26   53   1.774   2.304   1.501
    3CLSA   O11   54   1.858   2.102   1.139
    3CLSA   H27   55   1.770   2.129   1.107
    3CLSA   O12   56   2.098   2.103   1.268
    3CLSA   H28   57   2.060   2.096   1.179
    3CLSA   O13   58   1.862   2.124   1.559
    3CLSA   C18   59   1.623   2.174   1.588
    3CLSA   H29   60   1.647   2.106   1.671
    3CLSA   H30   61   1.592   2.269   1.633
    3CLSA   O14   62   1.513   2.123   1.514
    3CLSA   H31   63   1.464   2.199   1.480
    3CLSA   O15   64   2.083   2.058   1.563
    4CLSB   C19   65   2.148   2.120   1.676
    4CLSB   C20   66   2.115   2.176   1.919
    4CLSB   C21   67   2.042   2.137   1.789
    4CLSB   C22   68   2.268   2.031   1.717
    4CLSB   C23   69   2.237   2.083   1.949
    4CLSB   H32   70   1.979   2.223   1.763
    4CLSB   H33   71   2.153   2.279   1.908
    4CLSB   H34   72   2.231   1.930   1.738
    4CLSB   H35   73   2.199   1.981   1.966
    4CLSB   H36   74   2.185   2.219   1.647
    4CLSB   O16   75   2.327   2.085   1.837
    4CLSB   C24   76   2.378   2.027   1.609
    4CLSB   H37   77   2.452   1.950   1.634
    4CLSB   H38   78   2.334   2.002   1.512
    4CLSB   O17   79   2.444   2.153   1.600
    4CLSB   H39   80   2.496   2.163   1.681
    4CLSB   O18   81   2.019   2.173   2.022
    4CLSB   H40   82   1.986   2.082   2.009
    4CLSB   O19   83   1.961   2.018   1.804
    4CLSB   H41   84   1.928   1.992   1.716
    4CLSB   O20   85   2.309   2.133   2.063
    5CLSA   C25   86   2.402   2.040   2.124
    5CLSA   C26   87   2.643   2.043   2.295
    5CLSA   C27   88   2.401   2.070   2.276
    5CLSA   C28   89   2.544   2.063   2.060
    5CLSA   C29   90   2.657   2.007   2.146
    5CLSA   H42   91   2.660   2.150   2.314
    5CLSA   H43   92   2.372   1.936   2.107
    5CLSA   H44   93   2.558   2.172   2.053
    5CLSA   H45   94   2.652   1.897   2.140
    5CLSA   H46   95   2.410   2.178   2.290
    5CLSA   O21   96   2.557   2.002   1.929
    5CLSA   H47   97   2.477   2.025   1.878
    5CLSA   O22   98   2.781   2.052   2.092
    5CLSA   H48   99   2.768   2.053   1.996
    5CLSA   O23  100   2.513   2.003   2.341
    5CLSA   C30  101   2.272   2.022   2.347
    5CLSA   H49  102   2.296   1.942   2.418
    5CLSA   H50  103   2.230   2.106   2.404
    5CLSA   O24  104   2.176   1.973   2.258
    5CLSA   H51  105   2.118   2.048   2.235
    5CLSA   O25  106   2.738   1.962   2.362
    6CLSB   C31  107   2.801   2.024   2.473
    6CLSB   C32  108   2.773   2.058   2.720
    6CLSB   C33  109   2.702   2.017   2.591
    6CLSB   C34  110   2.930   1.942   2.501
    6CLSB   C35  111   2.904   1.979   2.739
    6CLSB   H52  112   2.625   2.093   2.574
    6CLSB   H53  113   2.796   2.165   2.714
    6CLSB   H54  114   2.902   1.837   2.515
    6CLSB   H55  115   2.875   1.874   2.756
    6CLSB   H56  116   2.828   2.128   2.451
    6CLSB   O26  117   2.990   1.992   2.623
    6CLSB   C36  118   3.033   1.950   2.385
    6CLSB   H57  119   3.113   1.878   2.405
    6CLSB   H58  120   2.984   1.920   2.292
    6CLSB   O27  121   3.087   2.081   2.370
    6CLSB   H59  122   3.131   2.106   2.453
    6CLSB   O28  123   2.687   2.035   2.830
    6CLSB   H60  124   2.619   1.979   2.788
    6CLSB   O29  125   2.642   1.884   2.599
    6CLSB   H61  126   2.566   1.889   2.539
    6CLSB   O30  127   2.975   2.034   2.852
    7CLSA   C37  128   3.073   1.948   2.909
    7CLSA   C38  129   3.324   1.948   3.066
    7CLSA   C39  130   3.082   1.982   3.061
    7CLSA   C40  131   3.214   1.979   2.839
    7CLSA   C41  132   3.329   1.915   2.916
    7CLSA   H62  133   3.342   2.054   3.085
    7CLSA   H63  134   3.046   1.842   2.897
    7CLSA   H64  135   3.226   2.088   2.844
    7CLSA   H65  136   3.319   1.806   2.908
    7CLSA   H66  137   3.097   2.090   3.071
    7CLSA   O31  138   3.227   1.935   2.702
    7CLSA   H67  139   3.141   1.946   2.659
    7CLSA   O32  140   3.453   1.959   2.853
    7CLSA   H68  141   3.429   1.961   2.758
    7CLSA   O33  142   3.194   1.910   3.118
    7CLSA   C42  143   2.956   1.947   3.147
    7CLSA   H69  144   2.986   1.878   3.226
    7CLSA   H70  145   2.919   2.038   3.196
    7CLSA   O34  146   2.853   1.887   3.072
    7CLSA   H71  147   2.810   1.953   3.015
    7CLSA   O35  148   3.416   1.865   3.131
    8CLSB   C43  149   3.483   1.929   3.240
    8CLSB   C44  150   3.451   1.984   3.485
    8CLSB   C45  151   3.379   1.950   3.354
    8CLSB   C46  152   3.601   1.836   3.280
    8CLSB   C47  153   3.566   1.884   3.516
    8CLSB   H72  154   3.319   2.039   3.328
    8CLSB   H73  155   3.490   2.086   3.480
    8CLSB   H74  156   3.562   1.735   3.293
    8CLSB   H75  157   3.521   1.786   3.534
    8CLSB   H76  158   3.521   2.026   3.206
    8CLSB   O36  159   3.659   1.881   3.405
    8CLSB   C48  160   3.711   1.831   3.170
    8CLSB   H77  161   3.777   1.746   3.192
    8CLSB   H78  162   3.664   1.812   3.073
    8CLSB   O37  163   3.787   1.952   3.164
    8CLSB   H79  164   3.823   1.961   3.253
    8CLSB   O38  165   3.351   1.976   3.584
    8CLSB   H80  166   3.297   1.903   3.547
    8CLSB   O39  167   3.293   1.834   3.368
    8CLSB   H81  168   3.259   1.812   3.280
    8CLSB   O40  169   3.638   1.932   3.631
    9CLSA   C49  170   3.721   1.837   3.701
    9CLSA   C50  171   3.961   1.829   3.874
    9CLSA   C51  172   3.718   1.875   3.852
    9CLSA   C52  173   3.865   1.850   3.641
    9CLSA   C53  174   3.971   1.782   3.727
    9CLSA   H82  175   3.990   1.935   3.884
    9CLSA   H83  176   3.684   1.735   3.688
    9CLSA   H84  177   3.888   1.957   3.636
    9CLSA   H85  178   3.951   1.674   3.727
    9CLSA   H86  179   3.731   1.984   3.860
    9CLSA   O41  180   3.877   1.791   3.510
    9CLSA   H87  181   3.803   1.823   3.456
    9CLSA   O42  182   4.099   1.806   3.665
    9CLSA   H88  183   4.077   1.793   3.571
    9CLSA   O43  184   3.827   1.808   3.922
    9CLSA   C54  185   3.585   1.837   3.924
    9CLSA   H89  186   3.602   1.751   3.990
    9CLSA   H90  187   3.554   1.921   3.986
    9CLSA   O44  188   3.481   1.807   3.831
    9CLSA   H91  189   3.449   1.895   3.804
    9CLSA   O45  190   4.046   1.744   3.949
   10CLSB   C55  191   4.092   1.803   4.071
   10CLSB   C56  192   4.150   1.734   4.310
   10CLSB   C57  193   4.071   1.697   4.181
   10CLSB   C58  194   4.242   1.837   4.049
   10CLSB   C59  195   4.298   1.770   4.272
   10CLSB   H92  196   3.964   1.695   4.206
   10CLSB   H93  197   4.103   1.821   4.357
   10CLSB   H94  198   4.294   1.748   4.012
   10CLSB   H95  199   4.346   1.681   4.231
   10CLSB   H96  200   4.036   1.893   4.097
   10CLSB   O46  201   4.295   1.877   4.176
   10CLSB   C60  202   4.269   1.952   3.949
   10CLSB   H97  203   4.377   1.957   3.931
   10CLSB   H98  204   4.221   1.931   3.852
   10CLSB   O47  205   4.222   2.075   4.003
   10CLSB   H99  206   4.230   2.062   4.099
   10CLSB   O48  207   4.141   1.622   4.398
   10CLSB  H100  208   4.153   1.548   4.337
   10CLSB   O49  209   4.112   1.569   4.131
   10CLSB  H101  210   4.084   1.573   4.037
   10CLSB   O50  211   4.374   1.822   4.379
   10CLSB  H102  212   4.380   1.917   4.361
   11SOL     OW  213   3.796   1.015   2.276
   11SOL    HW1  214   3.830   0.921   2.285
   11SOL    HW2  215   3.750   1.041   2.361
   12SOL     OW  216   3.506   1.597   4.691
   12SOL    HW1  217   3.458   1.571   4.774
   12SOL    HW2  218   3.464   1.680   4.653
   13SOL     OW  219   0.223   4.646   4.500
   13SOL    HW1  220   0.260   4.694   4.580
   13SOL    HW2  221   0.177   4.712   4.441
   14SOL     OW  222   1.665   4.653   0.423
   14SOL    HW1  223   1.625   4.561   0.431
   14SOL    HW2  224   1.762   4.648   0.446
   15SOL     OW  225   2.459   4.320   1.628
   15SOL    HW1  226   2.528   4.328   1.557
   15SOL    HW2  227   2.454   4.406   1.679
   16SOL     OW  228   4.701   3.338   3.577
   16SOL    HW1  229   4.718   3.286   3.661
   16SOL    HW2  230   4.758   3.420   3.577
   17SOL     OW  231   2.839   2.618   4.686
   17SOL    HW1  232   2.798   2.679   4.754
   17SOL    HW2  233   2.833   2.523   4.719
   18SOL     OW  234   4.614   4.466   4.349
   18SOL    HW1  235   4.628   4.371   4.378
   18SOL    HW2  236   4.531   4.471   4.293
   19SOL     OW  237   0.575   2.120   2.216
   19SOL    HW1  238   0.653   2.098   2.274
   19SOL    HW2  239   0.531   2.204   2.249
   20SOL     OW  240   1.628   2.281   0.287
   20SOL    HW1  241   1.596   2.369   0.323
   20SOL    HW2  242   1.569   2.208   0.321
   21SOL     OW  243   1.850   3.446   0.848
   21SOL    HW1  244   1.930   3.461   0.790
   21SOL    HW2  245   1.767   3.453   0.793
   22SOL     OW  246   4.390   3.234   1.857
   22SOL    HW1  247   4.353   3.150   1.818
   22SOL    HW2  248   4.333   3.312   1.831
   23SOL     OW  249   1.543   3.484   4.760
   23SOL    HW1  250   1.550   3.582   4.777
   23SOL    HW2  251   1.634   3.448   4.738
   24SOL     OW  252   1.189   0.766   3.799
   24SOL    HW1  253   1.121   0.821   3.750
   24SOL    HW2  254   1.141   0.700   3.857
   25SOL     OW  255   3.299   2.782   0.223
   25SOL    HW1  256   3.207   2.810   0.192
   25SOL    HW2  257   3.356   2.863   0.233
   26SOL     OW  258   3.314   1.284   2.145
   26SOL    HW1  259   3.260   1.211   2.187
   26SOL    HW2  260   3.295   1.370   2.193
   27SOL     OW  261   1.565   1.213   3.545
   27SOL    HW1  262   1.653   1.194   3.503
   27SOL    HW2  263   1.570   1.194   3.643
   28SOL     OW  264   4.561   2.749   2.021
   28SOL    HW1  265   4.490   2.795   2.075
   28SOL    HW2  266   4.625   2.703   2.082
   29SOL     OW  267   4.404   4.253   4.342
   29SOL    HW1  268   4.393   4.261   4.441
   29SOL    HW2  269   4.402   4.157   4.316
   30SOL     OW  270   2.770   2.493   3.744
   30SOL    HW1  271   2.835   2.472   3.818
   30SOL    HW2  272   2.692   2.431   3.751
   31SOL     OW  273   0.444   2.990   3.251
   31SOL    HW1  274   0.470   2.952   3.162
   31SOL    HW2  275   0.384   2.924   3.298
   32SOL     OW  276   3.292   0.622   0.694
   32SOL    HW1  277   3.255   0.530   0.709
   32SOL    HW2  278   3.217   0.688   0.689
   33SOL     OW  279   0.486   0.217   0.824
   33SOL    HW1  280   0.497   0.274   0.906
   33SOL    HW2  281   0.575   0.205   0.780
   34SOL     OW  282   2.991   3.597   2.358
   34SOL    HW1  283   3.046   3.611   2.440
   34SOL    HW2  284   2.918   3.532   2.378
   35SOL     OW  285   0.271   4.499   4.197
   35SOL    HW1  286   0.251   4.485   4.294
   35SOL    HW2  287   0.360   4.460   4.176
   36SOL     OW  288   3.017   2.113   4.083
   36SOL    HW1  289   2.964   2.036   4.119
   36SOL    HW2  290   2.979   2.198   4.119
   37SOL     OW  291   1.206   4.401   1.664
   37SOL    HW1  292   1.301   4.432   1.672
   37SOL    HW2  293   1.198   4.309   1.701
   38SOL     OW  294   2.003   4.541   0.316
   38SOL    HW1  295   2.019   4.537   0.218
   38SOL    HW2  296   1.933   4.474   0.341
   39SOL     OW  297   3.187   0.558   0.190
   39SOL    HW1  298   3.273   0.528   0.231
   39SOL    HW2  299   3.146   0.483   0.138
   40SOL     OW  300   0.322   0.550   2.490
   40SOL    HW1  301   0.386   0.596   2.428
   40SOL    HW2  302   0.228   0.574   2.465
   41SOL     OW  303   1.372   0.414   1.279
   41SOL    HW1  304   1.333   0.506   1.284
   41SOL    HW2  305   1.325   0.355   1.344
   42SOL     OW  306   2.386   2.748   2.815
   42SOL    HW1  307   2.470   2.758   2.762
   42SOL    HW2  308   2.401   2.784   2.907
   43SOL     OW  309   1.619   1.654   4.258
   43SOL    HW1  310   1.573   1.740   4.280
   43SOL    HW2  311   1.553   1.579   4.261
   44SOL     OW  312   0.282   4.502   3.858
   44SOL    HW1  313   0.339   4.579   3.883
   44SOL    HW2  314   0.186   4.529   3.864
   45SOL     OW  315   3.807   0.716   3.870
   45SOL    HW1  316   3.797   0.802   3.921
   45SOL    HW2  317   3.883   0.725   3.805
   46SOL     OW  318   2.025   0.255   0.252
   46SOL    HW1  319   1.995   0.338   0.299
   46SOL    HW2  320   1.946   0.194   0.240
   47SOL     OW  321   3.088   2.232   1.185
   47SOL    HW1  322   3.070   2.330   1.193
   47SOL    HW2  323   3.006   2.186   1.152
   48SOL     OW  324   2.844   3.001   1.966
   48SOL    HW1  325   2.749   3.017   1.989
   48SOL    HW2  326   2.902   3.063   2.018
   49SOL     OW  327   0.174   0.711   4.296
   49SOL    HW1  328   0.213   0.803   4.302
   49SOL    HW2  329   0.242   0.645   4.325
   50SOL     OW  330   2.981   4.127   2.311
   50SOL    HW1  331   3.012   4.067   2.385
   50SOL    HW2  332   3.001   4.083   2.223
   51SOL     OW  333   1.096   4.500   1.440
   51SOL    HW1  334   1.163   4.449   1.386
   51SOL    HW2  335   1.114   4.486   1.537
   52SOL     OW  336   2.195   2.369   0.409
   52SOL    HW1  337   2.259   2.446   0.402
   52SOL    HW2  338   2.237   2.288   0.368
   53SOL     OW  339   1.390   1.301   0.831
   53SOL    HW1  340   1.469   1.247   0.803
   53SOL    HW2  341   1.374   1.374   0.764
   54SOL     OW  342   4.353   0.907   3.812
   54SOL    HW1  343   4.270   0.867   3.850
   54SOL    HW2  344   4.363   0.879   3.716
   55SOL     OW  345   0.363   1.115   4.171
   55SOL    HW1  346   0.393   1.079   4.082
   55SOL    HW2  347   0.289   1.180   4.157
   56SOL     OW  348   1.085   2.553   1.776
   56SOL    HW1  349   1.032   2.476   1.739
   56SOL    HW2  350   1.073   2.633   1.716
   57SOL     OW  351   3.338   0.747   3.472
   57SOL    HW1  352   3.274   0.675   3.443
   57SOL    HW2  353   3.383   0.785   3.391
   58SOL     OW  354   4.375   3.038   2.122
   58SOL    HW1  355   4.436   3.069   2.049
   58SOL    HW2  356   4.315   3.113   2.149
   59SOL     OW  357   2.959   2.194   1.589
   59SOL    HW1  358   2.971   2.278   1.536
   59SOL    HW2  359   2.982   2.115   1.531
   60SOL     OW  360   0.285   4.230   0.582
   60SOL    HW1  361   0.207   4.192   0.532
   60SOL    HW2  362   0.369   4.189   0.547
   61SOL     OW  363   2.047   2.274   0.638
   61SOL    HW1  364   1.975   2.333   0.600
   61SOL    HW2  365   2.089   2.221   0.565
   62SOL     OW  366   4.420   3.836   0.655
   62SOL    HW1  367   4.451   3.775   0.728
   62SOL    HW2  368   4.489   3.839   0.583
   63SOL     OW  369   2.725   3.695   2.942
   63SOL    HW1  370   2.719   3.605   2.899
   63SOL    HW2  371   2.688   3.689   3.035
   64SOL     OW  372   1.678   1.418   2.000
   64SOL    HW1  373   1.756   1.481   1.995
   64SOL    HW2  374   1.627   1.422   1.915
   65SOL     OW  375   3.931   3.871   0.984
   65SOL    HW1  376   3.924   3.932   0.905
   65SOL    HW2  377   3.843   3.867   1.031
   66SOL     OW  378   4.007   2.871   2.403
   66SOL    HW1  379   3.927   2.834   2.450
   66SOL    HW2  380   4.087   2.817   2.427
   67SOL     OW  381   3.171   0.582   1.483
   67SOL    HW1  382   3.158   0.680   1.498
   67SOL    HW2  383   3.162   0.535   1.571
   68SOL     OW  384   4.783   0.305   2.743
   68SOL    HW1  385   4.838   0.383   2.715
   68SOL    HW2  386   4.837   0.246   2.803
   69SOL     OW  387   3.624   2.103   0.280
   69SOL    HW1  388   3.673   2.129   0.364
   69SOL    HW2  389   3.533   2.143   0.281
   70SOL     OW  390   4.103   1.133   1.934
   70SOL    HW1  391   4.132   1.228   1.940
   70SOL    HW2  392   4.026   1.118   1.995
   71SOL     OW  393   3.954   3.267   4.078
   71SOL    HW1  394   4.012   3.340   4.114
   71SOL    HW2  395   3.909   3.300   3.995
   72SOL     OW  396   2.450   4.717   4.883
   72SOL    HW1  397   2.538   4.706   4.835
   72SOL    HW2  398   2.383   4.654   4.844
   73SOL     OW  399   2.681   4.215   4.687
   73SOL    HW1  400   2.715   4.279   4.756
   73SOL    HW2  401   2.758   4.168   4.645
   74SOL     OW  402   4.463   4.373   2.715
   74SOL    HW1  403   4.429   4.444   2.775
   74SOL    HW2  404   4.392   4.347   2.650
   75SOL     OW  405   3.619   2.507   1.253
   75SOL    HW1  406   3.593   2.439   1.185
   75SOL    HW2  407   3.551   2.580   1.255
   76SOL     OW  408   0.215   4.379   2.526
   76SOL    HW1  409   0.153   4.425   2.589
   76SOL    HW2  410   0.279   4.323   2.578
   77SOL     OW  411   0.767   4.688   0.444
   77SOL    HW1  412   0.757   4.607   0.501
   77SOL    HW2  413   0.690   4.749   0.459
   78SOL     OW  414   0.963   0.201   1.090
   78SOL    HW1  415   0.873   0.244   1.075
   78SOL    HW2  416   1.034   0.272   1.084
   79SOL     OW  417   4.112   1.331   1.188
   79SOL    HW1  418   4.160   1.328   1.275
   79SOL    HW2  419   4.013   1.327   1.205
   80SOL     OW  420   1.861   1.686   2.127
   80SOL    HW1  421   1.765   1.658   2.134
   80SOL    HW2  422   1.914   1.637   2.196
   81SOL     OW  423   3.746   1.753   0.652
   81SOL    HW1  424   3.800   1.699   0.717
   81SOL    HW2  425   3.789   1.842   0.639
   82SOL     OW  426   2.996   4.308   1.345
   82SOL    HW1  427   3.013   4.401   1.375
   82SOL    HW2  428   3.023   4.244   1.417
   83SOL     OW  429   1.643   0.230   1.014
   83SOL    HW1  430   1.692   0.147   1.040
   83SOL    HW2  431   1.548   0.223   1.046
   84SOL     OW  432   1.318   3.435   4.376
   84SOL    HW1  433   1.265   3.447   4.460
   84SOL    HW2  434   1.415   3.452   4.396
   85SOL     OW  435   3.699   3.581   0.386
   85SOL    HW1  436   3.666   3.505   0.329
   85SOL    HW2  437   3.622   3.619   0.438
   86SOL     OW  438   2.967   4.594   0.363
   86SOL    HW1  439   2.947   4.677   0.310
   86SOL    HW2  440   2.938   4.608   0.458
   87SOL     OW  441   0.491   4.229   3.630
   87SOL    HW1  442   0.406   4.235   3.683
   87SOL    HW2  443   0.505   4.134   3.601
   88SOL     OW  444   3.737   1.359   1.694
   88SOL    HW1  445   3.833   1.380   1.672
   88SOL    HW2  446   3.724   1.259   1.691
   89SOL     OW  447   4.441   2.039   1.329
   89SOL    HW1  448   4.396   2.116   1.374
   89SOL    HW2  449   4.492   1.987   1.397
   90SOL     OW  450   4.256   2.976   3.992
   90SOL    HW1  451   4.157   2.963   3.996
   90SOL    HW2  452   4.289   2.948   3.902
   91SOL     OW  453   0.609   4.231   0.832
   91SOL    HW1  454   0.704   4.262   0.830
   91SOL    HW2  455   0.594   4.175   0.914
   92SOL     OW  456   3.775   0.563   2.599
   92SOL    HW1  457   3.866   0.585   2.634
   92SOL    HW2  458   3.766   0.464   2.591
   93SOL     OW  459   2.230   3.363   2.493
   93SOL    HW1  460   2.276   3.372   2.582
   93SOL    HW2  461   2.222   3.454   2.451
   94SOL     OW  462   2.086   2.046   4.863
   94SOL    HW1  463   2.094   1.952   4.827
   94SOL    HW2  464   2.151   2.105   4.814
   95SOL     OW  465   1.076   3.812   2.427
   95SOL    HW1  466   1.007   3.771   2.487
   95SOL    HW2  467   1.144   3.743   2.403
   96SOL     OW  468   4.012   3.470   2.735
   96SOL    HW1  469   4.011   3.555   2.788
   96SOL    HW2  470   3.983   3.489   2.642
   97SOL     OW  471   2.489   4.091   4.024
   97SOL    HW1  472   2.547   4.166   3.992
   97SOL    HW2  473   2.547   4.019   4.063
   98SOL     OW  474   3.319   2.458   0.711
   98SOL    HW1  475   3.318   2.557   0.719
   98SOL    HW2  476   3.409   2.424   0.740
   99SOL     OW  477   2.508   1.255   2.790
   99SOL    HW1  478   2.502   1.354   2.785
   99SOL    HW2  479   2.448   1.214   2.721
  100SOL     OW  480   0.225   3.047   2.744
  100SOL    HW1  481   0.188   3.140   2.740
  100SOL    HW2  482   0.150   2.982   2.734
  101SOL     OW  483   1.670   0.173   1.322
  101SOL    HW1  484   1.594   0.234   1.299
  101SOL    HW2  485   1.722   0.214   1.398
  102SOL     OW  486   0.895   2.354   2.746
  102SOL    HW1  487   0.966   2.298   2.704
  102SOL    HW2  488   0.929   2.390   2.833
  103SOL     OW  489   0.809   2.018   2.873
  103SOL    HW1  490   0.836   2.012   2.969
  103SOL    HW2  491   0.856   1.948   2.821
  104SOL     OW  492   3.400   2.576   1.741
  104SOL    HW1  493   3.389   2.528   1.828
  104SOL    HW2  494   3.309   2.593   1.702
  105SOL     OW  495   0.730   4.743   3.816
  105SOL    HW1  496   0.819   4.786   3.831
  105SOL    HW2  497   0.737   4.645   3.836
  106SOL     OW  498   3.226   4.501   2.798
  106SOL    HW1  499   3.196   4.574   2.736
  106SOL    HW2  500   3.247   4.541   2.887
  107SOL     OW  501   0.388   4.253   3.954
  107SOL    HW1  502   0.340   4.327   3.906
  107SOL    HW2  503   0.465   4.292   4.005
  108SOL     OW  504   1.578   1.235   3.857
  108SOL    HW1  505   1.593   1.324   3.900
  108SOL    HW2  506   1.523   1.177   3.918
  109SOL     OW  507   2.928   4.679   0.708
  109SOL    HW1  508   2.995   4.707   0.777
  109SOL    HW2  509   2.862   4.616   0.750
  110SOL     OW  510   1.916   2.071   0.868
  110SOL    HW1  511   1.917   2.090   0.966
  110SOL    HW2  512   1.918   1.973   0.853
  111SOL     OW  513   0.266   1.802   0.435
  111SOL    HW1  514   0.170   1.792   0.410
  111SOL    HW2  515   0.314   1.851   0.361
  112SOL     OW  516   0.938   1.363   2.248
  112SOL    HW1  517   0.988   1.440   2.286
  112SOL    HW2  518   1.000   1.286   2.235
  113SOL     OW  519   3.756   0.363   3.737
  113SOL    HW1  520   3.703   0.298   3.682
  113SOL    HW2  521   3.703   0.389   3.817
  114SOL     OW  522   3.009   0.974   2.720
  114SOL    HW1  523   3.041   0.926   2.801
  114SOL    HW2  524   3.078   0.968   2.648
  115SOL     OW  525   3.630   3.757   2.852
  115SOL    HW1  526   3.707   3.709   2.811
  115SOL    HW2  527   3.553   3.758   2.789
  116SOL     OW  528   4.156   1.198   1.463
  116SOL    HW1  529   4.076   1.196   1.523
  116SOL    HW2  530   4.175   1.104   1.432
  117SOL     OW  531   3.504   3.524   3.915
  117SOL    HW1  532   3.478   3.548   4.009
  117SOL    HW2  533   3.489   3.426   3.901
  118SOL     OW  534   3.204   3.225   3.108
  118SOL    HW1  535   3.292   3.270   3.095
  118SOL    HW2  536   3.215   3.149   3.172
  119SOL     OW  537   4.398   4.262   3.381
  119SOL    HW1  538   4.424   4.295   3.290
  119SOL    HW2  539   4.312   4.212   3.375
  120SOL     OW  540   1.747   3.637   0.244
  120SOL    HW1  541   1.822   3.571   0.247
  120SOL    HW2  542   1.773   3.715   0.188
  121SOL     OW  543   0.769   1.989   3.272
  121SOL    HW1  544   0.756   2.073   3.219
  121SOL    HW2  545   0.690   1.929   3.258
  122SOL     OW  546   2.273   3.369   2.098
  122SOL    HW1  547   2.229   3.307   2.163
  122SOL    HW2  548   2.202   3.414   2.043
  123SOL     OW  549   4.466   4.541   3.133
  123SOL    HW1  550   4.459   4.557   3.232
  123SOL    HW2  551   4.395   4.593   3.086
  124SOL     OW  552   1.232   3.122   0.595
  124SOL    HW1  553   1.158   3.072   0.639
  124SOL    HW2  554   1.240   3.212   0.638
  125SOL     OW  555   2.585   4.174   2.073
  125SOL    HW1  556   2.532   4.222   2.003
  125SOL    HW2  557   2.582   4.075   2.055
  126SOL     OW  558   4.685   2.131   3.713
  126SOL    HW1  559   4.589   2.150   3.691
  126SOL    HW2  560   4.698   2.032   3.720
  127SOL     OW  561   3.930   1.309   2.075
  127SOL    HW1  562   3.896   1.300   2.168
  127SOL    HW2  563   3.943   1.405   2.054
  128SOL     OW  564   0.409   1.980   1.675
  128SOL    HW1  565   0.408   1.892   1.627
  128SOL    HW2  566   0.374   1.967   1.768
  129SOL     OW  567   2.553   3.095   2.076
  129SOL    HW1  568   2.515   3.186   2.057
  129SOL    HW2  569   2.547   3.076   2.174
  130SOL     OW  570   0.190   4.771   1.721
  130SOL    HW1  571   0.188   4.714   1.803
  130SOL    HW2  572   0.229   4.860   1.742
  131SOL     OW  573   4.676   3.452   4.529
  131SOL    HW1  574   4.596   3.418   4.479
  131SOL    HW2  575   4.735   3.503   4.467
  132SOL     OW  576   4.610   1.735   3.372
  132SOL    HW1  577   4.681   1.784   3.322
  132SOL    HW2  578   4.533   1.717   3.311
  133SOL     OW  579   4.588   3.811   1.985
  133SOL    HW1  580   4.622   3.718   2.002
  133SOL    HW2  581   4.576   3.858   2.073
  134SOL     OW  582   4.077   0.333   2.742
  134SOL    HW1  583   4.101   0.408   2.803
  134SOL    HW2  584   4.021   0.267   2.792
  135SOL     OW  585   3.885   3.832   2.672
  135SOL    HW1  586   3.876   3.743   2.626
  135SOL    HW2  587   3.894   3.903   2.603
  136SOL     OW  588   0.355   3.425   0.288
  136SOL    HW1  589   0.362   3.517   0.327
  136SOL    HW2  590   0.446   3.395   0.259
  137SOL     OW  591   1.417   1.442   1.422
  137SOL    HW1  592   1.465   1.397   1.346
  137SOL    HW2  593   1.329   1.398   1.436
  138SOL     OW  594   3.196   4.159   4.454
  138SOL    HW1  595   3.267   4.140   4.386
  138SOL    HW2  596   3.199   4.256   4.480
  139SOL     OW  597   2.537   0.631   4.484
  139SOL    HW1  598   2.542   0.682   4.571
  139SOL    HW2  599   2.577   0.541   4.497
  140SOL     OW  600   0.622   4.519   4.740
  140SOL    HW1  601   0.653   4.432   4.779
  140SOL    HW2  602   0.654   4.527   4.646
  141SOL     OW  603   1.524   2.907   2.729
  141SOL    HW1  604   1.588   2.874   2.660
  141SOL    HW2  605   1.442   2.850   2.727
  142SOL     OW  606   2.621   3.060   1.059
  142SOL    HW1  607   2.712   3.038   1.023
  142SOL    HW2  608   2.623   3.057   1.159
  143SOL     OW  609   3.525   1.185   4.743
  143SOL    HW1  610   3.500   1.277   4.774
  143SOL    HW2  611   3.578   1.193   4.659
  144SOL     OW  612   1.320   4.722   4.357
  144SOL    HW1  613   1.289   4.627   4.355
  144SOL    HW2  614   1.415   4.726   4.389
  145SOL     OW  615   1.816   0.442   0.670
  145SOL    HW1  616   1.873   0.504   0.723
  145SOL    HW2  617   1.794   0.361   0.725
  146SOL     OW  618   0.389   0.867   0.850
  146SOL    HW1  619   0.432   0.957   0.848
  146SOL    HW2  620   0.290   0.878   0.842
  147SOL     OW  621   4.672   2.205   4.032
  147SOL    HW1  622   4.642   2.127   4.086
  147SOL    HW2  623   4.613   2.215   3.952
  148SOL     OW  624   2.903   3.769   3.257
  148SOL    HW1  625   2.928   3.710   3.181
  148SOL    HW2  626   2.808   3.752   3.282
  149SOL     OW  627   1.796   0.214   0.439
  149SOL    HW1  628   1.740   0.150   0.492
  149SOL    HW2  629   1.839   0.279   0.501
  150SOL     OW  630   0.583   0.680   0.967
  150SOL    HW1  631   0.523   0.744   0.919
  150SOL    HW2  632   0.653   0.732   1.016
  151SOL     OW  633   4.185   2.639   1.458
  151SOL    HW1  634   4.231   2.701   1.395
  151SOL    HW2  635   4.094   2.676   1.479
  152SOL     OW  636   0.854   3.152   2.545
  152SOL    HW1  637   0.784   3.213   2.582
  152SOL    HW2  638   0.855   3.068   2.598
  153SOL     OW  639   2.597   1.503   3.833
  153SOL    HW1  640   2.538   1.473   3.758
  153SOL    HW2  641   2.661   1.430   3.856
  154SOL     OW  642   4.336   1.722   3.548
  154SOL    HW1  643   4.268   1.743   3.618
  154SOL    HW2  644   4.427   1.722   3.589
  155SOL     OW  645   2.735   3.519   4.231
  155SOL    HW1  646   2.740   3.419   4.236
  155SOL    HW2  647   2.660   3.550   4.289
  156SOL     OW  648   1.964   3.534   3.457
  156SOL    HW1  649   1.996   3.576   3.542
  156SOL    HW2  650   1.985   3.594   3.380
  157SOL     OW  651   1.413   1.950   1.916
  157SOL    HW1  652   1.493   1.950   1.856
  157SOL    HW2  653   1.428   1.887   1.992
  158SOL     OW  654   0.497   4.844   1.080
  158SOL    HW1  655   0.557   4.764   1.084
  158SOL    HW2  656   0.416   4.827   1.136
  159SOL     OW  657   2.153   3.910   3.592
  159SOL    HW1  658   2.182   4.003   3.570
  159SOL    HW2  659   2.205   3.876   3.670
  160SOL     OW  660   3.708   4.753   3.297
  160SOL    HW1  661   3.723   4.674   3.356
  160SOL    HW2  662   3.738   4.836   3.344
  161SOL     OW  663   1.794   4.383   4.578
  161SOL    HW1  664   1.743   4.340   4.504
  161SOL    HW2  665   1.833   4.313   4.637
  162SOL     OW  666   1.595   4.204   2.842
  162SOL    HW1  667   1.552   4.120   2.875
  162SOL    HW2  668   1.549   4.283   2.883
  163SOL     OW  669   1.009   2.241   4.342
  163SOL    HW1  670   1.082   2.222   4.276
  163SOL    HW2  671   1.039   2.212   4.433
  164SOL     OW  672   4.021   1.799   3.269
  164SOL    HW1  673   4.082   1.770   3.196
  164SOL    HW2  674   4.073   1.854   3.335
  165SOL     OW  675   1.132   3.350   2.896
  165SOL    HW1  676   1.158   3.256   2.874
  165SOL    HW2  677   1.214   3.407   2.902
  166SOL     OW  678   3.287   3.018   1.632
  166SOL    HW1  679   3.320   3.037   1.725
  166SOL    HW2  680   3.322   2.929   1.603
  167SOL     OW  681   3.732   3.830   4.719
  167SOL    HW1  682   3.647   3.792   4.756
  167SOL    HW2  683   3.778   3.760   4.664
  168SOL     OW  684   0.426   0.724   2.270
  168SOL    HW1  685   0.402   0.747   2.176
  168SOL    HW2  686   0.526   0.722   2.278
  169SOL     OW  687   2.984   2.229   4.520
  169SOL    HW1  688   2.946   2.161   4.583
  169SOL    HW2  689   3.029   2.182   4.444
  170SOL     OW  690   1.294   0.603   2.011
  170SOL    HW1  691   1.360   0.677   2.025
  170SOL    HW2  692   1.315   0.528   2.073
  171SOL     OW  693   2.175   2.305   2.520
  171SOL    HW1  694   2.229   2.328   2.601
  171SOL    HW2  695   2.080   2.333   2.535
  172SOL     OW  696   4.668   0.248   3.477
  172SOL    HW1  697   4.745   0.282   3.531
  172SOL    HW2  698   4.633   0.164   3.519
  173SOL     OW  699   4.673   0.446   4.662
  173SOL    HW1  700   4.619   0.530   4.653
  173SOL    HW2  701   4.756   0.454   4.606
  174SOL     OW  702   3.760   0.360   0.642
  174SOL    HW1  703   3.714   0.448   0.631
  174SOL    HW2  704   3.693   0.286   0.634
  175SOL     OW  705   2.870   4.196   0.355
  175SOL    HW1  706   2.931   4.274   0.337
  175SOL    HW2  707   2.783   4.229   0.390
  176SOL     OW  708   4.736   0.245   3.846
  176SOL    HW1  709   4.682   0.318   3.890
  176SOL    HW2  710   4.701   0.156   3.876
  177SOL     OW  711   0.247   3.540   3.188
  177SOL    HW1  712   0.235   3.635   3.217
  177SOL    HW2  713   0.345   3.519   3.187
  178SOL     OW  714   0.760   0.461   1.271
  178SOL    HW1  715   0.740   0.364   1.284
  178SOL    HW2  716   0.842   0.484   1.324
  179SOL     OW  717   2.913   1.487   3.492
  179SOL    HW1  718   2.904   1.517   3.397
  179SOL    HW2  719   2.989   1.423   3.499
  180SOL     OW  720   2.716   1.959   0.928
  180SOL    HW1  721   2.778   1.942   0.852
  180SOL    HW2  722   2.674   2.049   0.917
  181SOL     OW  723   2.716   3.300   1.820
  181SOL    HW1  724   2.809   3.336   1.827
  181SOL    HW2  725   2.706   3.253   1.733
  182SOL     OW  726   0.679   1.336   4.465
  182SOL    HW1  727   0.583   1.308   4.458
  182SOL    HW2  728   0.728   1.268   4.519
  183SOL     OW  729   4.330   1.768   0.874
  183SOL    HW1  730   4.274   1.844   0.906
  183SOL    HW2  731   4.310   1.750   0.778
  184SOL     OW  732   0.229   4.516   1.867
  184SOL    HW1  733   0.298   4.450   1.898
  184SOL    HW2  734   0.176   4.475   1.793
  185SOL     OW  735   1.385   3.659   0.928
  185SOL    HW1  736   1.339   3.573   0.949
  185SOL    HW2  737   1.319   3.724   0.891
  186SOL     OW  738   0.441   1.301   0.979
  186SOL    HW1  739   0.481   1.243   0.908
  186SOL    HW2  740   0.487   1.390   0.978
  187SOL     OW  741   2.140   3.281   3.941
  187SOL    HW1  742   2.117   3.185   3.927
  187SOL    HW2  743   2.170   3.320   3.854
  188SOL     OW  744   2.423   1.627   2.494
  188SOL    HW1  745   2.456   1.535   2.516
  188SOL    HW2  746   2.453   1.690   2.565
  189SOL     OW  747   3.855   3.162   4.444
  189SOL    HW1  748   3.933   3.184   4.385
  189SOL    HW2  749   3.874   3.077   4.493
  190SOL     OW  750   4.794   1.274   2.478
  190SOL    HW1  751   4.760   1.184   2.449
  190SOL    HW2  752   4.716   1.333   2.499
  191SOL     OW  753   3.980   1.182   1.682
  191SOL    HW1  754   3.932   1.129   1.752
  191SOL    HW2  755   4.070   1.210   1.717
  192SOL     OW  756   3.282   0.799   0.413
  192SOL    HW1  757   3.184   0.784   0.423
  192SOL    HW2  758   3.318   0.837   0.498
  193SOL     OW  759   3.642   1.274   2.755
  193SOL    HW1  760   3.621   1.369   2.730
  193SOL    HW2  761   3.596   1.212   2.691
  194SOL     OW  762   1.581   0.554   3.699
  194SOL    HW1  763   1.488   0.590   3.709
  194SOL    HW2  764   1.630   0.607   3.630
  195SOL     OW  765   2.682   3.535   4.599
  195SOL    HW1  766   2.650   3.459   4.656
  195SOL    HW2  767   2.782   3.536   4.598
  196SOL     OW  768   4.259   3.493   3.542
  196SOL    HW1  769   4.181   3.544   3.580
  196SOL    HW2  770   4.343   3.542   3.563
  197SOL     OW  771   3.836   4.624   3.742
  197SOL    HW1  772   3.910   4.613   3.809
  197SOL    HW2  773   3.815   4.535   3.701
  198SOL     OW  774   4.690   1.190   4.581
  198SOL    HW1  775   4.641   1.170   4.497
  198SOL    HW2  776   4.747   1.111   4.606
  199SOL     OW  777   2.562   2.649   2.584
  199SOL    HW1  778   2.549   2.553   2.606
  199SOL    HW2  779   2.509   2.671   2.502
  200SOL     OW  780   2.081   3.521   4.108
  200SOL    HW1  781   2.170   3.566   4.108
  200SOL    HW2  782   2.088   3.433   4.061
  201SOL     OW  783   3.936   2.984   1.340
  201SOL    HW1  784   3.906   3.033   1.258
  201SOL    HW2  785   3.982   2.900   1.313
  202SOL     OW  786   3.314   2.717   4.114
  202SOL    HW1  787   3.224   2.676   4.124
  202SOL    HW2  788   3.341   2.713   4.018
  203SOL     OW  789   2.145   3.193   1.874
  203SOL    HW1  790   2.187   3.261   1.815
  203SOL    HW2  791   2.074   3.144   1.822
  204SOL     OW  792   4.015   4.775   3.266
  204SOL    HW1  793   3.958   4.857   3.270
  204SOL    HW2  794   4.076   4.782   3.186
  205SOL     OW  795   0.716   1.253   2.095
  205SOL    HW1  796   0.699   1.312   2.016
  205SOL    HW2  797   0.790   1.291   2.150
  206SOL     OW  798   1.211   4.135   0.491
  206SOL    HW1  799   1.255   4.210   0.540
  206SOL    HW2  800   1.123   4.114   0.535
  207SOL     OW  801   3.187   3.968   3.596
  207SOL    HW1  802   3.090   3.991   3.597
  207SOL    HW2  803   3.225   3.987   3.506
  208SOL     OW  804   0.552   4.455   4.190
  208SOL    HW1  805   0.616   4.382   4.212
  208SOL    HW2  806   0.599   4.525   4.137
  209SOL     OW  807   4.752   0.879   1.463
  209SOL    HW1  808   4.704   0.792   1.454
  209SOL    HW2  809   4.686   0.954   1.465
  210SOL     OW  810   2.368   0.793   2.874
  210SOL    HW1  811   2.412   0.869   2.921
  210SOL    HW2  812   2.437   0.726   2.847
  211SOL     OW  813   1.874   0.321   3.421
  211SOL    HW1  814   1.937   0.391   3.453
  211SOL    HW2  815   1.786   0.331   3.467
  212SOL     OW  816   2.542   1.548   3.122
  212SOL    HW1  817   2.456   1.524   3.168
  212SOL    HW2  818   2.618   1.534   3.185
  213SOL     OW  819   3.454   3.374   3.052
  213SOL    HW1  820   3.481   3.449   2.992
  213SOL    HW2  821   3.518   3.368   3.128
  214SOL     OW  822   1.045   4.157   2.730
  214SOL    HW1  823   0.968   4.221   2.730
  214SOL    HW2  824   1.011   4.065   2.750
  215SOL     OW  825   1.468   4.456   1.274
  215SOL    HW1  826   1.562   4.444   1.307
  215SOL    HW2  827   1.418   4.515   1.336
  216SOL     OW  828   0.728   1.386   2.802
  216SOL    HW1  829   0.761   1.456   2.738
  216SOL    HW2  830   0.703   1.304   2.751
  217SOL     OW  831   2.249   4.754   0.173
  217SOL    HW1  832   2.332   4.733   0.121
  217SOL    HW2  833   2.245   4.853   0.188
  218SOL     OW  834   2.230   4.313   0.767
  218SOL    HW1  835   2.160   4.384   0.764
  218SOL    HW2  836   2.320   4.356   0.768
  219SOL     OW  837   0.475   1.512   3.413
  219SOL    HW1  838   0.395   1.571   3.424
  219SOL    HW2  839   0.558   1.565   3.431
  220SOL     OW  840   3.751   3.493   3.037
  220SOL    HW1  841   3.767   3.473   3.134
  220SOL    HW2  842   3.753   3.592   3.023
  221SOL     OW  843   2.901   2.942   0.363
  221SOL    HW1  844   2.803   2.927   0.350
  221SOL    HW2  845   2.946   2.853   0.378
  222SOL     OW  846   4.721   1.909   4.379
  222SOL    HW1  847   4.654   1.973   4.416
  222SOL    HW2  848   4.808   1.921   4.428
  223SOL     OW  849   1.522   3.303   2.397
  223SOL    HW1  850   1.605   3.266   2.355
  223SOL    HW2  851   1.490   3.239   2.467
  224SOL     OW  852   0.650   1.313   0.679
  224SOL    HW1  853   0.741   1.337   0.644
  224SOL    HW2  854   0.620   1.385   0.742
  225SOL     OW  855   2.281   2.574   0.945
  225SOL    HW1  856   2.365   2.546   0.993
  225SOL    HW2  857   2.266   2.514   0.867
  226SOL     OW  858   2.253   4.599   0.465
  226SOL    HW1  859   2.297   4.676   0.419
  226SOL    HW2  860   2.175   4.568   0.411
  227SOL     OW  861   0.510   3.903   3.126
  227SOL    HW1  862   0.452   3.982   3.147
  227SOL    HW2  863   0.597   3.935   3.087
  228SOL     OW  864   4.661   0.337   2.253
  228SOL    HW1  865   4.700   0.418   2.208
  228SOL    HW2  866   4.733   0.292   2.306
  229SOL     OW  867   3.835   2.934   1.699
  229SOL    HW1  868   3.918   2.923   1.645
  229SOL    HW2  869   3.787   2.847   1.705
  230SOL     OW  870   2.900   3.152   0.676
  230SOL    HW1  871   2.932   3.160   0.582
  230SOL    HW2  872   2.836   3.226   0.696
  231SOL     OW  873   0.496   1.627   2.111
  231SOL    HW1  874   0.491   1.716   2.066
  231SOL    HW2  875   0.409   1.578   2.097
  232SOL     OW  876   0.762   4.213   4.266
  232SOL    HW1  877   0.819   4.145   4.312
  232SOL    HW2  878   0.668   4.178   4.260
  233SOL     OW  879   0.313   0.980   4.467
  233SOL    HW1  880   0.324   1.079   4.469
  233SOL    HW2  881   0.250   0.952   4.539
  234SOL     OW  882   1.618   2.859   0.672
  234SOL    HW1  883   1.699   2.809   0.703
  234SOL    HW2  884   1.623   2.953   0.706
  235SOL     OW  885   4.821   4.039   0.951
  235SOL    HW1  886   4.828   3.956   1.007
  235SOL    HW2  887   4.791   4.115   1.008
  236SOL     OW  888   1.818   1.606   1.814
  236SOL    HW1  889   1.903   1.555   1.795
  236SOL    HW2  890   1.839   1.683   1.874
  237SOL     OW  891   3.723   4.519   1.684
  237SOL    HW1  892   3.691   4.573   1.762
  237SOL    HW2  893   3.660   4.442   1.669
  238SOL     OW  894   3.449   2.908   2.902
  238SOL    HW1  895   3.482   2.814   2.911
  238SOL    HW2  896   3.470   2.941   2.810
  239SOL     OW  897   3.059   1.770   3.542
  239SOL    HW1  898   3.014   1.811   3.621
  239SOL    HW2  899   2.993   1.759   3.468
  240SOL     OW  900   3.181   0.818   1.854
  240SOL    HW1  901   3.094   0.842   1.897
  240SOL    HW2  902   3.254   0.874   1.893
  241SOL     OW  903   2.915   2.376   2.737
  241SOL    HW1  904   2.855   2.425   2.800
  241SOL    HW2  905   3.005   2.419   2.737
  242SOL     OW  906   4.794   3.497   4.803
  242SOL    HW1  907   4.708   3.478   4.851
  242SOL    HW2  908   4.787   3.463   4.709
  243SOL     OW  909   1.628   2.797   1.914
  243SOL    HW1  910   1.634   2.749   2.002
  243SOL    HW2  911   1.620   2.729   1.841
  244SOL     OW  912   2.558   0.714   2.525
  244SOL    HW1  913   2.657   0.724   2.528
  244SOL    HW2  914   2.515   0.805   2.525
  245SOL     OW  915   4.061   3.462   4.294
  245SOL    HW1  916   4.067   3.388   4.362
  245SOL    HW2  917   4.058   3.550   4.342
  246SOL     OW  918   2.538   2.394   1.436
  246SOL    HW1  919   2.445   2.364   1.414
  246SOL    HW2  920   2.549   2.489   1.407
  247SOL     OW  921   1.401   1.602   0.559
  247SOL    HW1  922   1.365   1.586   0.467
  247SOL    HW2  923   1.394   1.700   0.581
  248SOL     OW  924   1.720   3.732   2.457
  248SOL    HW1  925   1.773   3.810   2.423
  248SOL    HW2  926   1.696   3.747   2.553
  249SOL     OW  927   4.563   2.708   2.865
  249SOL    HW1  928   4.553   2.807   2.860
  249SOL    HW2  929   4.482   2.664   2.827
  250SOL     OW  930   4.121   1.107   3.575
  250SOL    HW1  931   4.154   1.057   3.655
  250SOL    HW2  932   4.110   1.204   3.598
  251SOL     OW  933   2.148   0.800   3.926
  251SOL    HW1  934   2.184   0.854   4.002
  251SOL    HW2  935   2.217   0.793   3.855
  252SOL     OW  936   1.719   3.328   3.903
  252SOL    HW1  937   1.632   3.357   3.943
  252SOL    HW2  938   1.775   3.285   3.974
  253SOL     OW  939   4.053   0.277   2.462
  253SOL    HW1  940   4.078   0.233   2.549
  253SOL    HW2  941   4.081   0.373   2.465
  254SOL     OW  942   3.792   2.523   2.528
  254SOL    HW1  943   3.725   2.459   2.489
  254SOL    HW2  944   3.765   2.616   2.505
  255SOL     OW  945   4.799   3.839   2.853
  255SOL    HW1  946   4.806   3.896   2.935
  255SOL    HW2  947   4.703   3.822   2.832
  256SOL     OW  948   1.049   4.566   1.015
  256SOL    HW1  949   1.107   4.623   0.956
  256SOL    HW2  950   1.088   4.563   1.107
  257SOL     OW  951   0.877   1.045   0.807
  257SOL    HW1  952   0.971   1.020   0.826
  257SOL    HW2  953   0.816   0.983   0.856
  258SOL     OW  954   4.646   2.656   1.078
  258SOL    HW1  955   4.616   2.721   1.009
  258SOL    HW2  956   4.743   2.672   1.099
  259SOL     OW  957   3.638   1.556   1.869
  259SOL    HW1  958   3.730   1.577   1.902
  259SOL    HW2  959   3.643   1.478   1.806
  260SOL     OW  960   1.109   3.548   0.849
  260SOL    HW1  961   1.020   3.568   0.808
  260SOL    HW2  962   1.130   3.451   0.836
  261SOL     OW  963   4.098   4.778   0.961
  261SOL    HW1  964   4.035   4.845   1.002
  261SOL    HW2  965   4.077   4.687   0.998
  262SOL     OW  966   3.403   2.811   3.204
  262SOL    HW1  967   3.447   2.881   3.148
  262SOL    HW2  968   3.371   2.852   3.290
  263SOL     OW  969   1.856   1.562   1.486
  263SOL    HW1  970   1.949   1.547   1.520
  263SOL    HW2  971   1.799   1.598   1.560
  264SOL     OW  972   3.052   2.288   0.564
  264SOL    HW1  973   3.067   2.347   0.485
  264SOL    HW2  974   3.140   2.265   0.605
  265SOL     OW  975   2.890   3.442   0.624
  265SOL    HW1  976   2.971   3.389   0.649
  265SOL    HW2  977   2.917   3.521   0.570
  266SOL     OW  978   3.469   1.647   2.795
  266SOL    HW1  979   3.531   1.725   2.806
  266SOL    HW2  980   3.422   1.655   2.707
  267SOL     OW  981   4.468   0.825   0.565
  267SOL    HW1  982   4.487   0.917   0.531
  267SOL    HW2  983   4.402   0.830   0.639
  268SOL     OW  984   2.585   3.238   0.517
  268SOL    HW1  985   2.662   3.183   0.485
  268SOL    HW2  986   2.617   3.329   0.541
  269SOL     OW  987   2.394   1.334   0.198
  269SOL    HW1  988   2.311   1.374   0.236
  269SOL    HW2  989   2.404   1.241   0.232
  270SOL     OW  990   1.587   4.390   1.801
  270SOL    HW1  991   1.651   4.407   1.726
  270SOL    HW2  992   1.597   4.296   1.831
  271SOL     OW  993   4.142   2.236   0.836
  271SOL    HW1  994   4.216   2.217   0.771
  271SOL    HW2  995   4.069   2.170   0.822
  272SOL     OW  996   2.827   4.672   2.714
  272SOL    HW1  997   2.770   4.594   2.742
  272SOL    HW2  998   2.918   4.639   2.692
  273SOL     OW  999   1.048   2.430   1.179
  273SOL    HW1 1000   0.966   2.378   1.155
  273SOL    HW2 1001   1.058   2.507   1.116
  274SOL     OW 1002   4.230   2.555   4.206
  274SOL    HW1 1003   4.282   2.529   4.125
  274SOL    HW2 1004   4.277   2.631   4.252
  275SOL     OW 1005   0.897   2.857   2.539
  275SOL    HW1 1006   0.833   2.835   2.465
  275SOL    HW2 1007   0.980   2.897   2.500
  276SOL     OW 1008   1.190   4.471   2.902
  276SOL    HW1 1009   1.226   4.392   2.951
  276SOL    HW2 1010   1.139   4.529   2.966
  277SOL     OW 1011   1.490   1.447   2.360
  277SOL    HW1 1012   1.497   1.347   2.368
  277SOL    HW2 1013   1.406   1.478   2.404
  278SOL     OW 1014   1.491   3.223   3.627
  278SOL    HW1 1015   1.398   3.199   3.653
  278SOL    HW2 1016   1.542   3.249   3.709
  279SOL     OW 1017   3.973   2.977   3.914
  279SOL    HW1 1018   3.933   3.069   3.914
  279SOL    HW2 1019   3.943   2.928   3.996
  280SOL     OW 1020   1.768   1.834   1.331
  280SOL    HW1 1021   1.797   1.837   1.236
  280SOL    HW2 1022   1.772   1.740   1.365
  281SOL     OW 1023   2.103   3.194   4.729
  281SOL    HW1 1024   2.203   3.193   4.717
  281SOL    HW2 1025   2.069   3.285   4.708
  282SOL     OW 1026   3.397   4.102   4.231
  282SOL    HW1 1027   3.446   4.061   4.307
  282SOL    HW2 1028   3.460   4.115   4.154
  283SOL     OW 1029   2.484   2.371   0.966
  283SOL    HW1 1030   2.464   2.362   0.868
  283SOL    HW2 1031   2.418   2.316   1.017
  284SOL     OW 1032   0.855   0.837   2.360
  284SOL    HW1 1033   0.757   0.822   2.348
  284SOL    HW2 1034   0.903   0.750   2.351
  285SOL     OW 1035   1.191   2.738   4.652
  285SOL    HW1 1036   1.099   2.712   4.623
  285SOL    HW2 1037   1.255   2.718   4.579
  286SOL     OW 1038   3.596   4.762   2.618
  286SOL    HW1 1039   3.545   4.830   2.563
  286SOL    HW2 1040   3.535   4.687   2.641
  287SOL     OW 1041   3.072   3.857   2.296
  287SOL    HW1 1042   3.137   3.787   2.326
  287SOL    HW2 1043   2.988   3.812   2.265
  288SOL     OW 1044   1.311   1.891   0.536
  288SOL    HW1 1045   1.380   1.947   0.490
  288SOL    HW2 1046   1.222   1.909   0.494
  289SOL     OW 1047   1.120   2.596   0.407
  289SOL    HW1 1048   1.101   2.633   0.316
  289SOL    HW2 1049   1.056   2.521   0.426
  290SOL     OW 1050   3.155   1.575   3.105
  290SOL    HW1 1051   3.153   1.570   3.205
  290SOL    HW2 1052   3.089   1.644   3.074
  291SOL     OW 1053   1.552   4.281   3.787
  291SOL    HW1 1054   1.508   4.361   3.828
  291SOL    HW2 1055   1.510   4.198   3.823
  292SOL     OW 1056   1.699   0.894   4.727
  292SOL    HW1 1057   1.748   0.809   4.745
  292SOL    HW2 1058   1.750   0.947   4.659
  293SOL     OW 1059   0.533   3.979   1.711
  293SOL    HW1 1060   0.448   3.990   1.660
  293SOL    HW2 1061   0.541   3.884   1.743
  294SOL     OW 1062   0.449   2.375   2.060
  294SOL    HW1 1063   0.403   2.419   1.984
  294SOL    HW2 1064   0.476   2.283   2.032
  295SOL     OW 1065   3.187   4.781   2.712
  295SOL    HW1 1066   3.106   4.839   2.710
  295SOL    HW2 1067   3.245   4.803   2.634
  296SOL     OW 1068   4.669   3.811   4.805
  296SOL    HW1 1069   4.757   3.771   4.826
  296SOL    HW2 1070   4.655   3.810   4.706
  297SOL     OW 1071   3.354   4.059   1.504
  297SOL    HW1 1072   3.424   4.004   1.459
  297SOL    HW2 1073   3.270   4.057   1.450
  298SOL     OW 1074   2.788   3.220   0.161
  298SOL    HW1 1075   2.709   3.272   0.195
  298SOL    HW2 1076   2.767   3.122   0.163
  299SOL     OW 1077   1.686   3.640   2.781
  299SOL    HW1 1078   1.740   3.563   2.748
  299SOL    HW2 1079   1.590   3.626   2.757
  300SOL     OW 1080   4.155   3.243   2.141
  300SOL    HW1 1081   4.166   3.329   2.191
  300SOL    HW2 1082   4.062   3.209   2.155
  301SOL     OW 1083   3.323   3.255   1.441
  301SOL    HW1 1084   3.241   3.212   1.478
  301SOL    HW2 1085   3.404   3.207   1.475
  302SOL     OW 1086   2.797   3.142   2.852
  302SOL    HW1 1087   2.859   3.120   2.777
  302SOL    HW2 1088   2.850   3.150   2.937
  303SOL     OW 1089   2.653   1.578   4.150
  303SOL    HW1 1090   2.751   1.591   4.131
  303SOL    HW2 1091   2.613   1.665   4.176
  304SOL     OW 1092   0.286   2.111   1.356
  304SOL    HW1 1093   0.372   2.103   1.305
  304SOL    HW2 1094   0.218   2.050   1.317
  305SOL     OW 1095   3.705   4.039   2.308
  305SOL    HW1 1096   3.641   4.083   2.371
  305SOL    HW2 1097   3.794   4.030   2.352
  306SOL     OW 1098   3.768   2.910   2.922
  306SOL    HW1 1099   3.700   2.936   2.854
  306SOL    HW2 1100   3.848   2.871   2.876
  307SOL     OW 1101   0.375   3.315   3.777
  307SOL    HW1 1102   0.349   3.232   3.728
  307SOL    HW2 1103   0.309   3.387   3.755
  308SOL     OW 1104   1.237   1.063   3.434
  308SOL    HW1 1105   1.224   1.152   3.391
  308SOL    HW2 1106   1.178   0.995   3.390
  309SOL     OW 1107   1.179   2.163   1.651
  309SOL    HW1 1108   1.267   2.209   1.642
  309SOL    HW2 1109   1.146   2.135   1.561
  310SOL     OW 1110   2.746   3.486   3.925
  310SOL    HW1 1111   2.799   3.402   3.940
  310SOL    HW2 1112   2.793   3.563   3.969
  311SOL     OW 1113   3.286   0.912   1.594
  311SOL    HW1 1114   3.345   0.850   1.543
  311SOL    HW2 1115   3.237   0.861   1.664
  312SOL     OW 1116   3.930   3.772   3.144
  312SOL    HW1 1117   3.975   3.771   3.233
  312SOL    HW2 1118   3.990   3.815   3.077
  313SOL     OW 1119   2.156   0.573   4.647
  313SOL    HW1 1120   2.159   0.578   4.548
  313SOL    HW2 1121   2.093   0.501   4.675
  314SOL     OW 1122   4.521   2.954   4.846
  314SOL    HW1 1123   4.446   2.950   4.780
  314SOL    HW2 1124   4.560   3.047   4.846
  315SOL     OW 1125   2.893   0.597   2.251
  315SOL    HW1 1126   2.815   0.580   2.311
  315SOL    HW2 1127   2.890   0.533   2.174
  316SOL     OW 1128   2.724   1.362   2.523
  316SOL    HW1 1129   2.823   1.350   2.532
  316SOL    HW2 1130   2.706   1.446   2.472
  317SOL     OW 1131   3.733   0.201   3.248
  317SOL    HW1 1132   3.728   0.183   3.149
  317SOL    HW2 1133   3.759   0.296   3.262
  318SOL     OW 1134   3.956   4.745   1.240
  318SOL    HW1 1135   3.970   4.645   1.241
  318SOL    HW2 1136   4.026   4.788   1.297
  319SOL     OW 1137   2.719   1.007   2.731
  319SOL    HW1 1138   2.818   1.015   2.743
  319SOL    HW2 1139   2.687   0.924   2.777
  320SOL     OW 1140   2.186   2.724   3.756
  320SOL    HW1 1141   2.133   2.639   3.758
  320SOL    HW2 1142   2.126   2.800   3.780
  321SOL     OW 1143   2.827   2.346   0.807
  321SOL    HW1 1144   2.925   2.361   0.795
  321SOL    HW2 1145   2.781   2.435   0.810
  322SOL     OW 1146   0.443   1.173   1.693
  322SOL    HW1 1147   0.476   1.107   1.761
  322SOL    HW2 1148   0.386   1.242   1.739
  323SOL     OW 1149   4.514   2.517   3.442
  323SOL    HW1 1150   4.585   2.454   3.474
  323SOL    HW2 1151   4.553   2.608   3.431
  324SOL     OW 1152   2.028   3.947   0.618
  324SOL    HW1 1153   2.022   3.910   0.525
  324SOL    HW2 1154   2.122   3.939   0.650
  325SOL     OW 1155   0.927   3.460   0.643
  325SOL    HW1 1156   0.904   3.370   0.605
  325SOL    HW2 1157   0.843   3.513   0.656
  326SOL     OW 1158   4.385   3.491   0.880
  326SOL    HW1 1159   4.381   3.555   0.803
  326SOL    HW2 1160   4.303   3.502   0.936
  327SOL     OW 1161   1.241   4.777   1.211
  327SOL    HW1 1162   1.314   4.710   1.227
  327SOL    HW2 1163   1.208   4.810   1.300
  328SOL     OW 1164   2.240   0.537   0.464
  328SOL    HW1 1165   2.338   0.530   0.445
  328SOL    HW2 1166   2.209   0.454   0.509
  329SOL     OW 1167   3.539   0.818   1.199
  329SOL    HW1 1168   3.476   0.834   1.123
  329SOL    HW2 1169   3.615   0.761   1.168
  330SOL     OW 1170   4.202   4.098   3.702
  330SOL    HW1 1171   4.156   4.053   3.779
  330SOL    HW2 1172   4.235   4.028   3.639
  331SOL     OW 1173   0.709   1.431   2.496
  331SOL    HW1 1174   0.720   1.341   2.454
  331SOL    HW2 1175   0.767   1.497   2.449
  332SOL     OW 1176   1.634   4.845   1.578
  332SOL    HW1 1177   1.579   4.832   1.660
  332SOL    HW2 1178   1.573   4.868   1.502
  333SOL     OW 1179   1.082   1.071   1.680
  333SOL    HW1 1180   1.112   1.134   1.752
  333SOL    HW2 1181   0.987   1.092   1.657
  334SOL     OW 1182   2.281   4.513   3.738
  334SOL    HW1 1183   2.251   4.592   3.685
  334SOL    HW2 1184   2.200   4.464   3.772
  335SOL     OW 1185   3.655   0.544   1.073
  335SOL    HW1 1186   3.626   0.451   1.053
  335SOL    HW2 1187   3.722   0.542   1.147
  336SOL     OW 1188   3.900   4.744   0.616
  336SOL    HW1 1189   3.917   4.842   0.625
  336SOL    HW2 1190   3.848   4.713   0.695
  337SOL     OW 1191   2.878   0.829   3.862
  337SOL    HW1 1192   2.802   0.865   3.807
  337SOL    HW2 1193   2.842   0.766   3.931
  338SOL     OW 1194   0.573   1.408   4.774
  338SOL    HW1 1195   0.548   1.500   4.805
  338SOL    HW2 1196   0.624   1.362   4.846
  339SOL     OW 1197   2.179   0.271   1.270
  339SOL    HW1 1198   2.171   0.371   1.271
  339SOL    HW2 1199   2.089   0.230   1.260
  340SOL     OW 1200   1.800   0.323   2.492
  340SOL    HW1 1201   1.778   0.400   2.552
  340SOL    HW2 1202   1.897   0.299   2.504
  341SOL     OW 1203   1.259   3.465   3.595
  341SOL    HW1 1204   1.259   3.395   3.666
  341SOL    HW2 1205   1.337   3.450   3.534
  342SOL     OW 1206   1.543   0.811   3.585
  342SOL    HW1 1207   1.470   0.875   3.607
  342SOL    HW2 1208   1.624   0.861   3.554
  343SOL     OW 1209   3.920   1.685   1.649
  343SOL    HW1 1210   3.988   1.758   1.644
  343SOL    HW2 1211   3.951   1.614   1.712
  344SOL     OW 1212   4.018   3.371   2.387
  344SOL    HW1 1213   3.967   3.288   2.409
  344SOL    HW2 1214   3.953   3.446   2.372
  345SOL     OW 1215   4.506   1.893   0.514
  345SOL    HW1 1216   4.591   1.873   0.563
  345SOL    HW2 1217   4.462   1.973   0.555
  346SOL     OW 1218   4.728   4.057   2.128
  346SOL    HW1 1219   4.769   3.982   2.180
  346SOL    HW2 1220   4.793   4.132   2.122
  347SOL     OW 1221   2.455   0.515   1.584
  347SOL    HW1 1222   2.451   0.528   1.485
  347SOL    HW2 1223   2.390   0.578   1.627
  348SOL     OW 1224   4.253   4.141   2.563
  348SOL    HW1 1225   4.287   4.205   2.494
  348SOL    HW2 1226   4.322   4.070   2.579
  349SOL     OW 1227   1.021   3.179   1.770
  349SOL    HW1 1228   0.968   3.095   1.774
  349SOL    HW2 1229   1.004   3.233   1.852
  350SOL     OW 1230   2.485   3.313   1.437
  350SOL    HW1 1231   2.560   3.369   1.403
  350SOL    HW2 1232   2.432   3.366   1.503
  351SOL     OW 1233   4.090   3.949   2.948
  351SOL    HW1 1234   4.127   3.944   2.855
  351SOL    HW2 1235   4.025   4.025   2.953
  352SOL     OW 1236   2.450   1.616   0.994
  352SOL    HW1 1237   2.539   1.647   1.026
  352SOL    HW2 1238   2.386   1.612   1.072
  353SOL     OW 1239   3.349   3.335   3.760
  353SOL    HW1 1240   3.329   3.432   3.774
  353SOL    HW2 1241   3.301   3.303   3.678
  354SOL     OW 1242   4.130   2.368   2.378
  354SOL    HW1 1243   4.190   2.405   2.449
  354SOL    HW2 1244   4.070   2.300   2.419
  355SOL     OW 1245   4.134   0.247   4.455
  355SOL    HW1 1246   4.137   0.259   4.554
  355SOL    HW2 1247   4.103   0.155   4.433
  356SOL     OW 1248   1.668   0.669   0.480
  356SOL    HW1 1249   1.731   0.611   0.532
  356SOL    HW2 1250   1.635   0.742   0.539
  357SOL     OW 1251   2.144   3.305   3.639
  357SOL    HW1 1252   2.057   3.326   3.593
  357SOL    HW2 1253   2.166   3.208   3.623
  358SOL     OW 1254   3.351   0.458   4.123
  358SOL    HW1 1255   3.284   0.384   4.122
  358SOL    HW2 1256   3.440   0.422   4.095
  359SOL     OW 1257   3.524   0.422   3.049
  359SOL    HW1 1258   3.481   0.333   3.067
  359SOL    HW2 1259   3.623   0.414   3.064
  360SOL     OW 1260   3.323   2.316   1.069
  360SOL    HW1 1261   3.340   2.359   1.158
  360SOL    HW2 1262   3.247   2.253   1.077
  361SOL     OW 1263   3.312   1.066   2.982
  361SOL    HW1 1264   3.309   0.993   2.913
  361SOL    HW2 1265   3.407   1.083   3.008
  362SOL     OW 1266   4.635   3.938   1.528
  362SOL    HW1 1267   4.554   3.998   1.524
  362SOL    HW2 1268   4.606   3.843   1.519
  363SOL     OW 1269   0.525   0.997   0.356
  363SOL    HW1 1270   0.457   0.924   0.354
  363SOL    HW2 1271   0.617   0.957   0.349
  364SOL     OW 1272   3.995   3.592   0.329
  364SOL    HW1 1273   3.927   3.519   0.337
  364SOL    HW2 1274   3.948   3.680   0.326
  365SOL     OW 1275   0.787   1.789   3.963
  365SOL    HW1 1276   0.715   1.854   3.986
  365SOL    HW2 1277   0.876   1.834   3.969
  366SOL     OW 1278   2.725   0.910   4.415
  366SOL    HW1 1279   2.801   0.908   4.351
  366SOL    HW2 1280   2.648   0.859   4.376
  367SOL     OW 1281   0.274   4.061   3.198
  367SOL    HW1 1282   0.216   4.138   3.223
  367SOL    HW2 1283   0.236   3.977   3.239
  368SOL     OW 1284   0.259   4.324   1.614
  368SOL    HW1 1285   0.353   4.330   1.581
  368SOL    HW2 1286   0.199   4.380   1.556
  369SOL     OW 1287   0.134   2.469   2.406
  369SOL    HW1 1288   0.192   2.414   2.347
  369SOL    HW2 1289   0.156   2.449   2.502
  370SOL     OW 1290   4.297   1.107   4.492
  370SOL    HW1 1291   4.334   1.164   4.565
  370SOL    HW2 1292   4.333   1.014   4.501
  371SOL     OW 1293   2.529   3.922   0.643
  371SOL    HW1 1294   2.470   3.991   0.601
  371SOL    HW2 1295   2.578   3.963   0.720
  372SOL     OW 1296   3.596   0.903   2.808
  372SOL    HW1 1297   3.569   0.822   2.755
  372SOL    HW2 1298   3.632   0.972   2.745
  373SOL     OW 1299   2.282   1.882   0.499
  373SOL    HW1 1300   2.284   1.885   0.399
  373SOL    HW2 1301   2.188   1.863   0.529
  374SOL     OW 1302   2.972   3.370   3.190
  374SOL    HW1 1303   3.042   3.339   3.125
  374SOL    HW2 1304   3.003   3.354   3.283
  375SOL     OW 1305   1.719   0.441   3.119
  375SOL    HW1 1306   1.810   0.406   3.141
  375SOL    HW2 1307   1.651   0.371   3.142
  376SOL     OW 1308   3.818   3.219   2.633
  376SOL    HW1 1309   3.874   3.277   2.692
  376SOL    HW2 1310   3.739   3.186   2.686
  377SOL     OW 1311   4.593   4.476   1.754
  377SOL    HW1 1312   4.616   4.469   1.851
  377SOL    HW2 1313   4.589   4.385   1.715
  378SOL     OW 1314   4.685   4.387   0.292
  378SOL    HW1 1315   4.723   4.479   0.281
  378SOL    HW2 1316   4.625   4.366   0.215
  379SOL     OW 1317   3.539   4.066   3.293
  379SOL    HW1 1318   3.541   4.162   3.265
  379SOL    HW2 1319   3.591   4.012   3.227
  380SOL     OW 1320   1.339   1.014   1.448
  380SOL    HW1 1321   1.273   1.056   1.509
  380SOL    HW2 1322   1.308   0.923   1.423
  381SOL     OW 1323   2.533   1.078   2.467
  381SOL    HW1 1324   2.593   1.079   2.387
  381SOL    HW2 1325   2.580   1.121   2.544
  382SOL     OW 1326   4.170   3.352   4.623
  382SOL    HW1 1327   4.263   3.367   4.657
  382SOL    HW2 1328   4.108   3.415   4.669
  383SOL     OW 1329   2.007   0.819   2.317
  383SOL    HW1 1330   2.030   0.762   2.396
  383SOL    HW2 1331   2.081   0.884   2.302
  384SOL     OW 1332   4.516   3.750   3.136
  384SOL    HW1 1333   4.460   3.832   3.151
  384SOL    HW2 1334   4.611   3.771   3.158
  385SOL     OW 1335   4.561   2.069   2.412
  385SOL    HW1 1336   4.484   2.011   2.383
  385SOL    HW2 1337   4.640   2.050   2.355
  386SOL     OW 1338   4.806   2.492   2.443
  386SOL    HW1 1339   4.803   2.406   2.493
  386SOL    HW2 1340   4.885   2.492   2.382
  387SOL     OW 1341   4.783   4.034   3.127
  387SOL    HW1 1342   4.700   4.089   3.121
  387SOL    HW2 1343   4.853   4.086   3.176
  388SOL     OW 1344   2.335   2.877   3.499
  388SOL    HW1 1345   2.389   2.887   3.415
  388SOL    HW2 1346   2.308   2.968   3.531
  389SOL     OW 1347   1.905   0.809   1.317
  389SOL    HW1 1348   1.905   0.899   1.274
  389SOL    HW2 1349   1.835   0.806   1.388
  390SOL     OW 1350   0.878   1.199   3.907
  390SOL    HW1 1351   0.859   1.292   3.938
  390SOL    HW2 1352   0.825   1.134   3.960
  391SOL     OW 1353   3.553   1.740   2.528
  391SOL    HW1 1354   3.628   1.784   2.479
  391SOL    HW2 1355   3.489   1.701   2.462
  392SOL     OW 1356   4.425   3.291   3.759
  392SOL    HW1 1357   4.370   3.327   3.684
  392SOL    HW2 1358   4.380   3.210   3.797
  393SOL     OW 1359   1.195   2.628   3.335
  393SOL    HW1 1360   1.166   2.578   3.416
  393SOL    HW2 1361   1.212   2.723   3.359
  394SOL     OW 1362   2.255   2.183   3.178
  394SOL    HW1 1363   2.334   2.125   3.158
  394SOL    HW2 1364   2.217   2.158   3.267
  395SOL     OW 1365   2.968   1.315   2.691
  395SOL    HW1 1366   3.053   1.304   2.743
  395SOL    HW2 1367   2.890   1.311   2.754
  396SOL     OW 1368   1.177   0.808   2.884
  396SOL    HW1 1369   1.200   0.713   2.902
  396SOL    HW2 1370   1.261   0.863   2.882
  397SOL     OW 1371   1.533   0.630   2.703
  397SOL    HW1 1372   1.598   0.702   2.725
  397SOL    HW2 1373   1.453   0.639   2.762
  398SOL     OW 1374   0.497   1.959   4.661
  398SOL    HW1 1375   0.579   1.982   4.608
  398SOL    HW2 1376   0.480   1.861   4.655
  399SOL     OW 1377   0.870   4.301   0.996
  399SOL    HW1 1378   0.796   4.360   1.025
  399SOL    HW2 1379   0.956   4.331   1.037
  400SOL     OW 1380   2.010   1.048   4.755
  400SOL    HW1 1381   1.976   1.068   4.847
  400SOL    HW2 1382   2.069   0.967   4.759
  401SOL     OW 1383   2.995   3.105   3.631
  401SOL    HW1 1384   2.962   3.013   3.652
  401SOL    HW2 1385   2.920   3.159   3.594
  402SOL     OW 1386   4.108   3.707   1.797
  402SOL    HW1 1387   4.049   3.770   1.848
  402SOL    HW2 1388   4.143   3.753   1.716
  403SOL     OW 1389   2.045   2.110   4.277
  403SOL    HW1 1390   2.090   2.103   4.366
  403SOL    HW2 1391   1.947   2.099   4.289
  404SOL     OW 1392   2.358   1.527   2.211
  404SOL    HW1 1393   2.344   1.475   2.295
  404SOL    HW2 1394   2.350   1.625   2.230
  405SOL     OW 1395   1.982   0.327   0.945
  405SOL    HW1 1396   1.890   0.368   0.945
  405SOL    HW2 1397   2.033   0.362   1.024
  406SOL     OW 1398   2.722   4.017   3.638
  406SOL    HW1 1399   2.804   3.998   3.583
  406SOL    HW2 1400   2.644   4.029   3.577
  407SOL     OW 1401   3.087   3.531   0.413
  407SOL    HW1 1402   3.150   3.608   0.422
  407SOL    HW2 1403   3.104   3.485   0.326
  408SOL     OW 1404   1.060   3.793   3.185
  408SOL    HW1 1405   1.123   3.731   3.232
  408SOL    HW2 1406   0.969   3.751   3.181
  409SOL     OW 1407   2.723   0.407   1.621
  409SOL    HW1 1408   2.656   0.334   1.635
  409SOL    HW2 1409   2.675   0.491   1.593
  410SOL     OW 1410   4.358   1.556   3.319
  410SOL    HW1 1411   4.361   1.626   3.390
  410SOL    HW2 1412   4.378   1.467   3.359
  411SOL     OW 1413   0.538   0.830   2.536
  411SOL    HW1 1414   0.455   0.839   2.482
  411SOL    HW2 1415   0.521   0.860   2.629
  412SOL     OW 1416   3.982   0.607   4.715
  412SOL    HW1 1417   3.953   0.594   4.621
  412SOL    HW2 1418   3.982   0.705   4.737
  413SOL     OW 1419   1.512   4.023   1.906
  413SOL    HW1 1420   1.586   4.018   1.838
  413SOL    HW2 1421   1.428   3.988   1.865
  414SOL     OW 1422   3.324   2.243   4.005
  414SOL    HW1 1423   3.235   2.207   3.977
  414SOL    HW2 1424   3.396   2.182   3.970
  415SOL     OW 1425   3.357   2.391   2.029
  415SOL    HW1 1426   3.261   2.364   2.022
  415SOL    HW2 1427   3.406   2.323   2.084
  416SOL     OW 1428   3.383   3.924   0.655
  416SOL    HW1 1429   3.421   3.857   0.719
  416SOL    HW2 1430   3.298   3.961   0.691
  417SOL     OW 1431   2.273   3.775   0.995
  417SOL    HW1 1432   2.188   3.724   0.998
  417SOL    HW2 1433   2.303   3.795   1.089
  418SOL     OW 1434   2.027   3.402   4.453
  418SOL    HW1 1435   1.948   3.453   4.420
  418SOL    HW2 1436   2.107   3.461   4.454
  419SOL     OW 1437   3.873   2.479   2.808
  419SOL    HW1 1438   3.799   2.420   2.774
  419SOL    HW2 1439   3.873   2.564   2.755
  420SOL     OW 1440   4.164   1.119   4.051
  420SOL    HW1 1441   4.221   1.201   4.051
  420SOL    HW2 1442   4.089   1.130   4.116
  421SOL     OW 1443   4.336   4.842   4.205
  421SOL    HW1 1444   4.423   4.805   4.238
  421SOL    HW2 1445   4.272   4.768   4.188
  422SOL     OW 1446   0.309   1.713   3.560
  422SOL    HW1 1447   0.230   1.764   3.596
  422SOL    HW2 1448   0.389   1.735   3.615
  423SOL     OW 1449   2.379   1.840   0.847
  423SOL    HW1 1450   2.395   1.858   0.750
  423SOL    HW2 1451   2.413   1.748   0.869
  424SOL     OW 1452   2.507   3.490   2.190
  424SOL    HW1 1453   2.503   3.453   2.098
  424SOL    HW2 1454   2.421   3.470   2.238
  425SOL     OW 1455   3.778   4.821   1.012
  425SOL    HW1 1456   3.783   4.844   1.109
  425SOL    HW2 1457   3.811   4.728   0.998
  426SOL     OW 1458   4.147   0.408   0.815
  426SOL    HW1 1459   4.076   0.338   0.812
  426SOL    HW2 1460   4.177   0.427   0.721
  427SOL     OW 1461   3.078   1.139   4.727
  427SOL    HW1 1462   3.172   1.164   4.701
  427SOL    HW2 1463   3.080   1.054   4.780
  428SOL     OW 1464   0.483   1.142   3.383
  428SOL    HW1 1465   0.556   1.075   3.391
  428SOL    HW2 1466   0.518   1.233   3.405
  429SOL     OW 1467   2.767   2.543   0.166
  429SOL    HW1 1468   2.716   2.583   0.242
  429SOL    HW2 1469   2.755   2.444   0.167
  430SOL     OW 1470   4.412   3.578   4.080
  430SOL    HW1 1471   4.365   3.524   4.009
  430SOL    HW2 1472   4.367   3.564   4.168
  431SOL     OW 1473   3.910   4.079   4.503
  431SOL    HW1 1474   4.006   4.101   4.518
  431SOL    HW2 1475   3.871   4.043   4.588
  432SOL     OW 1476   1.913   2.900   4.004
  432SOL    HW1 1477   1.866   2.974   4.052
  432SOL    HW2 1478   1.964   2.845   4.070
  433SOL     OW 1479   1.560   0.693   3.245
  433SOL    HW1 1480   1.581   0.780   3.290
  433SOL    HW2 1481   1.643   0.637   3.240
  434SOL     OW 1482   4.222   4.343   2.308
  434SOL    HW1 1483   4.207   4.429   2.260
  434SOL    HW2 1484   4.149   4.279   2.283
  435SOL     OW 1485   2.016   1.845   3.132
  435SOL    HW1 1486   1.946   1.775   3.141
  435SOL    HW2 1487   2.107   1.802   3.135
  436SOL     OW 1488   2.805   1.683   2.867
  436SOL    HW1 1489   2.824   1.653   2.773
  436SOL    HW2 1490   2.875   1.646   2.928
  437SOL     OW 1491   3.660   4.399   3.995
  437SOL    HW1 1492   3.634   4.319   4.049
  437SOL    HW2 1493   3.682   4.475   4.056
  438SOL     OW 1494   3.463   0.351   4.462
  438SOL    HW1 1495   3.394   0.408   4.506
  438SOL    HW2 1496   3.554   0.387   4.483
  439SOL     OW 1497   2.644   2.326   3.456
  439SOL    HW1 1498   2.711   2.325   3.381
  439SOL    HW2 1499   2.578   2.400   3.440
  440SOL     OW 1500   4.008   1.741   0.887
  440SOL    HW1 1501   4.057   1.754   0.801
  440SOL    HW2 1502   3.975   1.646   0.892
  441SOL     OW 1503   1.672   4.633   3.055
  441SOL    HW1 1504   1.753   4.662   3.004
  441SOL    HW2 1505   1.658   4.695   3.132
  442SOL     OW 1506   3.736   3.260   2.899
  442SOL    HW1 1507   3.748   3.352   2.936
  442SOL    HW2 1508   3.685   3.204   2.964
  443SOL     OW 1509   0.995   3.448   3.828
  443SOL    HW1 1510   1.025   3.460   3.734
  443SOL    HW2 1511   0.942   3.364   3.836
  444SOL     OW 1512   3.972   1.931   2.194
  444SOL    HW1 1513   4.063   1.891   2.181
  444SOL    HW2 1514   3.983   2.026   2.221
  445SOL     OW 1515   1.358   2.014   4.740
  445SOL    HW1 1516   1.314   1.926   4.756
  445SOL    HW2 1517   1.452   2.011   4.774
  446SOL     OW 1518   4.474   2.709   4.130
  446SOL    HW1 1519   4.495   2.627   4.076
  446SOL    HW2 1520   4.407   2.765   4.080
  447SOL     OW 1521   3.008   1.093   1.353
  447SOL    HW1 1522   3.097   1.050   1.360
  447SOL    HW2 1523   3.009   1.159   1.277
  448SOL     OW 1524   1.775   4.526   2.039
  448SOL    HW1 1525   1.787   4.444   2.095
  448SOL    HW2 1526   1.680   4.534   2.011
  449SOL     OW 1527   1.940   1.326   4.627
  449SOL    HW1 1528   1.876   1.273   4.683
  449SOL    HW2 1529   1.925   1.304   4.531
  450SOL     OW 1530   1.439   4.228   4.772
  450SOL    HW1 1531   1.470   4.315   4.735
  450SOL    HW2 1532   1.506   4.157   4.748
  451SOL     OW 1533   1.530   2.861   4.202
  451SOL    HW1 1534   1.592   2.908   4.264
  451SOL    HW2 1535   1.461   2.926   4.169
  452SOL     OW 1536   4.438   4.573   4.117
  452SOL    HW1 1537   4.443   4.485   4.070
  452SOL    HW2 1538   4.512   4.632   4.086
  453SOL     OW 1539   1.006   2.034   3.745
  453SOL    HW1 1540   1.048   2.063   3.660
  453SOL    HW2 1541   1.036   2.095   3.819
  454SOL     OW 1542   4.493   3.822   2.849
  454SOL    HW1 1543   4.478   3.744   2.909
  454SOL    HW2 1544   4.409   3.841   2.798
  455SOL     OW 1545   0.782   2.669   4.531
  455SOL    HW1 1546   0.733   2.587   4.559
  455SOL    HW2 1547   0.717   2.743   4.514
  456SOL     OW 1548   2.751   2.417   1.615
  456SOL    HW1 1549   2.670   2.475   1.604
  456SOL    HW2 1550   2.722   2.321   1.616
  457SOL     OW 1551   0.349   4.255   4.596
  457SOL    HW1 1552   0.328   4.158   4.603
  457SOL    HW2 1553   0.263   4.307   4.596
  458SOL     OW 1554   4.477   2.403   2.410
  458SOL    HW1 1555   4.430   2.315   2.395
  458SOL    HW2 1556   4.411   2.477   2.400
  459SOL     OW 1557   0.466   2.247   1.537
  459SOL    HW1 1558   0.403   2.324   1.536
  459SOL    HW2 1559   0.413   2.162   1.542
  460SOL     OW 1560   2.008   1.903   2.064
  460SOL    HW1 1561   2.077   1.841   2.102
  460SOL    HW2 1562   1.918   1.879   2.100
  461SOL     OW 1563   3.596   0.544   3.407
  461SOL    HW1 1564   3.522   0.584   3.461
  461SOL    HW2 1565   3.618   0.453   3.442
  462SOL     OW 1566   0.880   4.427   1.264
  462SOL    HW1 1567   0.924   4.359   1.323
  462SOL    HW2 1568   0.923   4.516   1.278
  463SOL     OW 1569   1.876   1.249   0.682
  463SOL    HW1 1570   1.891   1.252   0.583
  463SOL    HW2 1571   1.783   1.280   0.701
  464SOL     OW 1572   2.912   2.539   2.347
  464SOL    HW1 1573   2.972   2.461   2.366
  464SOL    HW2 1574   2.818   2.507   2.340
  465SOL     OW 1575   4.066   3.528   3.806
  465SOL    HW1 1576   4.002   3.603   3.818
  465SOL    HW2 1577   4.032   3.447   3.853
  466SOL     OW 1578   0.785   1.724   2.179
  466SOL    HW1 1579   0.712   1.671   2.224
  466SOL    HW2 1580   0.748   1.812   2.151
  467SOL     OW 1581   1.000   4.015   1.796
  467SOL    HW1 1582   1.003   3.934   1.738
  467SOL    HW2 1583   1.085   4.066   1.787
  468SOL     OW 1584   2.966   4.508   4.189
  468SOL    HW1 1585   2.891   4.492   4.125
  468SOL    HW2 1586   3.038   4.560   4.144
  469SOL     OW 1587   1.562   4.722   0.932
  469SOL    HW1 1588   1.465   4.708   0.951
  469SOL    HW2 1589   1.606   4.634   0.916
  470SOL     OW 1590   1.887   1.717   4.780
  470SOL    HW1 1591   1.798   1.761   4.789
  470SOL    HW2 1592   1.938   1.729   4.865
  471SOL     OW 1593   4.236   2.078   1.143
  471SOL    HW1 1594   4.173   2.002   1.126
  471SOL    HW2 1595   4.309   2.048   1.204
  472SOL     OW 1596   3.134   4.099   0.416
  472SOL    HW1 1597   3.128   4.186   0.466
  472SOL    HW2 1598   3.049   4.085   0.365
  473SOL     OW 1599   4.709   0.503   0.214
  473SOL    HW1 1600   4.784   0.564   0.241
  473SOL    HW2 1601   4.641   0.556   0.163
  474SOL     OW 1602   1.612   0.233   3.907
  474SOL    HW1 1603   1.565   0.168   3.847
  474SOL    HW2 1604   1.637   0.188   3.992
  475SOL     OW 1605   4.459   1.426   3.598
  475SOL    HW1 1606   4.509   1.362   3.656
  475SOL    HW2 1607   4.368   1.442   3.637
  476SOL     OW 1608   2.000   1.838   3.893
  476SOL    HW1 1609   1.915   1.787   3.878
  476SOL    HW2 1610   2.076   1.774   3.900
  477SOL     OW 1611   1.098   1.139   2.099
  477SOL    HW1 1612   1.175   1.193   2.065
  477SOL    HW2 1613   1.116   1.042   2.084
  478SOL     OW 1614   2.555   0.939   3.321
  478SOL    HW1 1615   2.641   0.935   3.270
  478SOL    HW2 1616   2.488   0.879   3.277
  479SOL     OW 1617   3.341   3.382   0.615
  479SOL    HW1 1618   3.384   3.358   0.702
  479SOL    HW2 1619   3.392   3.340   0.540
  480SOL     OW 1620   1.400   3.879   4.751
  480SOL    HW1 1621   1.334   3.815   4.712
  480SOL    HW2 1622   1.362   3.920   4.833
  481SOL     OW 1623   4.307   3.447   1.676
  481SOL    HW1 1624   4.402   3.478   1.680
  481SOL    HW2 1625   4.249   3.525   1.654
  482SOL     OW 1626   2.032   1.434   3.359
  482SOL    HW1 1627   1.979   1.506   3.314
  482SOL    HW2 1628   1.994   1.419   3.451
  483SOL     OW 1629   4.802   2.914   2.263
  483SOL    HW1 1630   4.719   2.874   2.224
  483SOL    HW2 1631   4.776   2.977   2.336
  484SOL     OW 1632   4.350   1.391   0.234
  484SOL    HW1 1633   4.386   1.464   0.177
  484SOL    HW2 1634   4.336   1.425   0.327
  485SOL     OW 1635   3.706   2.872   4.553
  485SOL    HW1 1636   3.616   2.835   4.531
  485SOL    HW2 1637   3.774   2.798   4.544
  486SOL     OW 1638   3.851   2.794   3.273
  486SOL    HW1 1639   3.796   2.853   3.214
  486SOL    HW2 1640   3.799   2.772   3.356
  487SOL     OW 1641   3.815   3.524   3.585
  487SOL    HW1 1642   3.837   3.433   3.552
  487SOL    HW2 1643   3.868   3.591   3.534
  488SOL     OW 1644   2.340   1.800   3.068
  488SOL    HW1 1645   2.263   1.781   3.007
  488SOL    HW2 1646   2.390   1.715   3.085
  489SOL     OW 1647   0.978   4.102   3.399
  489SOL    HW1 1648   0.945   4.009   3.413
  489SOL    HW2 1649   1.063   4.115   3.450
  490SOL     OW 1650   1.511   4.436   4.225
  490SOL    HW1 1651   1.608   4.437   4.202
  490SOL    HW2 1652   1.462   4.381   4.158
  491SOL     OW 1653   4.002   3.865   2.167
  491SOL    HW1 1654   3.979   3.961   2.183
  491SOL    HW2 1655   3.917   3.811   2.169
  492SOL     OW 1656   2.832   0.913   4.788
  492SOL    HW1 1657   2.791   0.822   4.783
  492SOL    HW2 1658   2.889   0.920   4.870
  493SOL     OW 1659   1.517   2.168   3.338
  493SOL    HW1 1660   1.455   2.203   3.268
  493SOL    HW2 1661   1.611   2.186   3.311
  494SOL     OW 1662   2.723   4.434   0.382
  494SOL    HW1 1663   2.633   4.468   0.410
  494SOL    HW2 1664   2.768   4.504   0.325
  495SOL     OW 1665   1.308   3.870   0.750
  495SOL    HW1 1666   1.366   3.840   0.674
  495SOL    HW2 1667   1.352   3.947   0.796
  496SOL     OW 1668   1.333   0.739   2.477
  496SOL    HW1 1669   1.362   0.643   2.484
  496SOL    HW2 1670   1.245   0.743   2.430
  497SOL     OW 1671   3.966   4.125   2.459
  497SOL    HW1 1672   4.063   4.120   2.482
  497SOL    HW2 1673   3.936   4.220   2.462
  498SOL     OW 1674   3.910   0.464   1.652
  498SOL    HW1 1675   3.838   0.528   1.625
  498SOL    HW2 1676   3.997   0.494   1.612
  499SOL     OW 1677   1.966   2.817   3.391
  499SOL    HW1 1678   2.045   2.777   3.439
  499SOL    HW2 1679   1.888   2.755   3.399
  500SOL     OW 1680   1.658   2.654   3.995
  500SOL    HW1 1681   1.583   2.694   4.048
  500SOL    HW2 1682   1.744   2.671   4.042
  501SOL     OW 1683   2.102   2.656   0.394
  501SOL    HW1 1684   2.037   2.732   0.407
  501SOL    HW2 1685   2.051   2.571   0.386
  502SOL     OW 1686   2.680   1.047   4.098
  502SOL    HW1 1687   2.681   1.147   4.111
  502SOL    HW2 1688   2.773   1.012   4.107
  503SOL     OW 1689   4.553   1.613   4.437
  503SOL    HW1 1690   4.557   1.712   4.446
  503SOL    HW2 1691   4.458   1.583   4.440
  504SOL     OW 1692   4.311   0.624   4.491
  504SOL    HW1 1693   4.292   0.526   4.486
  504SOL    HW2 1694   4.318   0.651   4.587
  505SOL     OW 1695   2.283   3.023   0.248
  505SOL    HW1 1696   2.303   2.932   0.212
  505SOL    HW2 1697   2.249   3.015   0.341
  506SOL     OW 1698   1.939   0.858   4.236
  506SOL    HW1 1699   1.927   0.762   4.208
  506SOL    HW2 1700   1.973   0.911   4.158
  507SOL     OW 1701   2.338   2.700   0.553
  507SOL    HW1 1702   2.263   2.739   0.501
  507SOL    HW2 1703   2.318   2.708   0.651
  508SOL     OW 1704   2.181   0.890   3.472
  508SOL    HW1 1705   2.096   0.942   3.466
  508SOL    HW2 1706   2.228   0.912   3.557
  509SOL     OW 1707   1.827   3.180   0.669
  509SOL    HW1 1708   1.895   3.221   0.730
  509SOL    HW2 1709   1.820   3.083   0.689
  510SOL     OW 1710   3.469   3.580   3.328
  510SOL    HW1 1711   3.400   3.530   3.381
  510SOL    HW2 1712   3.434   3.672   3.308
  511SOL     OW 1713   3.084   4.832   1.498
  511SOL    HW1 1714   3.160   4.852   1.436
  511SOL    HW2 1715   3.073   4.733   1.506
  512SOL     OW 1716   0.873   3.557   4.063
  512SOL    HW1 1717   0.959   3.603   4.084
  512SOL    HW2 1718   0.863   3.551   3.963
  513SOL     OW 1719   1.161   4.820   4.126
  513SOL    HW1 1720   1.166   4.720   4.130
  513SOL    HW2 1721   1.122   4.854   4.212
  514SOL     OW 1722   2.419   0.547   3.605
  514SOL    HW1 1723   2.443   0.504   3.692
  514SOL    HW2 1724   2.385   0.478   3.542
  515SOL     OW 1725   0.482   1.697   3.932
  515SOL    HW1 1726   0.548   1.651   3.991
  515SOL    HW2 1727   0.437   1.770   3.985
  516SOL     OW 1728   3.790   2.052   1.755
  516SOL    HW1 1729   3.739   1.966   1.744
  516SOL    HW2 1730   3.863   2.038   1.821
  517SOL     OW 1731   4.256   4.298   1.595
  517SOL    HW1 1732   4.166   4.258   1.610
  517SOL    HW2 1733   4.292   4.332   1.682
  518SOL     OW 1734   3.750   3.969   1.890
  518SOL    HW1 1735   3.706   4.057   1.905
  518SOL    HW2 1736   3.819   3.978   1.818
  519SOL     OW 1737   1.439   4.543   3.876
  519SOL    HW1 1738   1.359   4.601   3.891
  519SOL    HW2 1739   1.521   4.594   3.899
  520SOL     OW 1740   3.371   3.995   0.961
  520SOL    HW1 1741   3.454   4.033   0.920
  520SOL    HW2 1742   3.295   4.057   0.946
  521SOL     OW 1743   4.648   0.768   4.802
  521SOL    HW1 1744   4.718   0.701   4.825
  521SOL    HW2 1745   4.567   0.753   4.860
  522SOL     OW 1746   2.517   2.549   2.116
  522SOL    HW1 1747   2.417   2.546   2.118
  522SOL    HW2 1748   2.546   2.621   2.052
  523SOL     OW 1749   0.599   2.619   3.717
  523SOL    HW1 1750   0.633   2.648   3.806
  523SOL    HW2 1751   0.585   2.520   3.717
  524SOL     OW 1752   3.021   2.938   2.877
  524SOL    HW1 1753   3.071   2.912   2.960
  524SOL    HW2 1754   3.085   2.981   2.813
  525SOL     OW 1755   1.641   0.226   2.272
  525SOL    HW1 1756   1.711   0.256   2.337
  525SOL    HW2 1757   1.607   0.136   2.300
  526SOL     OW 1758   3.912   3.958   0.241
  526SOL    HW1 1759   3.977   4.027   0.274
  526SOL    HW2 1760   3.935   3.933   0.147
  527SOL     OW 1761   0.659   2.813   2.315
  527SOL    HW1 1762   0.565   2.779   2.317
  527SOL    HW2 1763   0.668   2.883   2.244
  528SOL     OW 1764   2.048   1.826   4.512
  528SOL    HW1 1765   2.023   1.817   4.608
  528SOL    HW2 1766   2.061   1.735   4.472
  529SOL     OW 1767   4.040   0.188   4.711
  529SOL    HW1 1768   4.062   0.134   4.792
  529SOL    HW2 1769   3.959   0.149   4.667
  530SOL     OW 1770   1.377   2.956   0.813
  530SOL    HW1 1771   1.431   2.873   0.828
  530SOL    HW2 1772   1.382   2.982   0.716
  531SOL     OW 1773   1.415   0.385   2.154
  531SOL    HW1 1774   1.503   0.375   2.107
  531SOL    HW2 1775   1.421   0.343   2.244
  532SOL     OW 1776   3.599   1.056   4.288
  532SOL    HW1 1777   3.630   1.130   4.228
  532SOL    HW2 1778   3.674   0.992   4.303
  533SOL     OW 1779   1.580   1.166   1.306
  533SOL    HW1 1780   1.516   1.106   1.354
  533SOL    HW2 1781   1.619   1.231   1.372
  534SOL     OW 1782   4.125   0.242   1.055
  534SOL    HW1 1783   4.146   0.258   1.151
  534SOL    HW2 1784   4.181   0.303   0.998
  535SOL     OW 1785   3.563   4.048   4.463
  535SOL    HW1 1786   3.606   4.091   4.543
  535SOL    HW2 1787   3.578   3.949   4.467
  536SOL     OW 1788   2.566   0.548   0.493
  536SOL    HW1 1789   2.658   0.585   0.485
  536SOL    HW2 1790   2.571   0.450   0.513
  537SOL     OW 1791   0.770   2.423   3.854
  537SOL    HW1 1792   0.812   2.387   3.937
  537SOL    HW2 1793   0.839   2.473   3.801
  538SOL     OW 1794   3.137   1.657   2.770
  538SOL    HW1 1795   3.214   1.629   2.828
  538SOL    HW2 1796   3.164   1.649   2.674
  539SOL     OW 1797   3.145   4.643   1.254
  539SOL    HW1 1798   3.047   4.657   1.237
  539SOL    HW2 1799   3.192   4.630   1.167
  540SOL     OW 1800   4.168   3.704   4.502
  540SOL    HW1 1801   4.236   3.778   4.500
  540SOL    HW2 1802   4.215   3.617   4.518
  541SOL     OW 1803   2.894   3.207   4.337
  541SOL    HW1 1804   2.866   3.156   4.256
  541SOL    HW2 1805   2.820   3.207   4.403
  542SOL     OW 1806   3.266   4.518   3.366
  542SOL    HW1 1807   3.312   4.434   3.339
  542SOL    HW2 1808   3.295   4.592   3.306
  543SOL     OW 1809   3.371   2.168   4.350
  543SOL    HW1 1810   3.403   2.151   4.257
  543SOL    HW2 1811   3.367   2.266   4.366
  544SOL     OW 1812   4.510   1.927   4.766
  544SOL    HW1 1813   4.424   1.974   4.745
  544SOL    HW2 1814   4.568   1.987   4.820
  545SOL     OW 1815   2.068   2.362   4.162
  545SOL    HW1 1816   2.061   2.384   4.259
  545SOL    HW2 1817   2.076   2.262   4.152
  546SOL     OW 1818   1.024   2.215   3.224
  546SOL    HW1 1819   1.012   2.167   3.311
  546SOL    HW2 1820   1.057   2.150   3.155
  547SOL     OW 1821   1.005   4.763   4.363
  547SOL    HW1 1822   0.941   4.782   4.437
  547SOL    HW2 1823   1.084   4.714   4.399
  548SOL     OW 1824   3.308   1.280   2.498
  548SOL    HW1 1825   3.244   1.205   2.482
  548SOL    HW2 1826   3.269   1.365   2.461
  549SOL     OW 1827   1.507   0.859   2.080
  549SOL    HW1 1828   1.558   0.811   2.152
  549SOL    HW2 1829   1.522   0.957   2.089
  550SOL     OW 1830   3.691   1.222   0.449
  550SOL    HW1 1831   3.699   1.131   0.409
  550SOL    HW2 1832   3.771   1.240   0.505
  551SOL     OW 1833   1.839   4.164   1.048
  551SOL    HW1 1834   1.926   4.190   1.007
  551SOL    HW2 1835   1.856   4.118   1.136
  552SOL     OW 1836   2.016   4.481   1.215
  552SOL    HW1 1837   2.089   4.514   1.275
  552SOL    HW2 1838   2.021   4.382   1.208
  553SOL     OW 1839   1.049   0.337   3.319
  553SOL    HW1 1840   1.068   0.283   3.237
  553SOL    HW2 1841   1.037   0.275   3.397
  554SOL     OW 1842   0.459   4.493   0.467
  554SOL    HW1 1843   0.484   4.458   0.557
  554SOL    HW2 1844   0.393   4.567   0.477
  555SOL     OW 1845   1.148   4.221   4.795
  555SOL    HW1 1846   1.244   4.221   4.824
  555SOL    HW2 1847   1.114   4.127   4.797
  556SOL     OW 1848   4.077   3.882   4.172
  556SOL    HW1 1849   3.989   3.886   4.219
  556SOL    HW2 1850   4.146   3.932   4.225
  557SOL     OW 1851   0.386   4.755   0.760
  557SOL    HW1 1852   0.429   4.772   0.849
  557SOL    HW2 1853   0.456   4.763   0.689
  558SOL     OW 1854   3.542   3.947   3.554
  558SOL    HW1 1855   3.555   3.848   3.559
  558SOL    HW2 1856   3.541   3.976   3.458
  559SOL     OW 1857   1.486   3.420   4.108
  559SOL    HW1 1858   1.543   3.400   4.188
  559SOL    HW2 1859   1.399   3.458   4.139
  560SOL     OW 1860   1.945   1.722   2.630
  560SOL    HW1 1861   1.867   1.765   2.584
  560SOL    HW2 1862   1.944   1.624   2.612
  561SOL     OW 1863   1.305   4.716   2.649
  561SOL    HW1 1864   1.398   4.681   2.640
  561SOL    HW2 1865   1.278   4.761   2.563
  562SOL     OW 1866   0.821   1.594   4.293
  562SOL    HW1 1867   0.748   1.612   4.358
  562SOL    HW2 1868   0.858   1.502   4.311
  563SOL     OW 1869   2.260   3.737   4.745
  563SOL    HW1 1870   2.264   3.743   4.845
  563SOL    HW2 1871   2.343   3.778   4.706
  564SOL     OW 1872   4.233   2.359   1.171
  564SOL    HW1 1873   4.244   2.260   1.185
  564SOL    HW2 1874   4.184   2.375   1.086
  565SOL     OW 1875   2.121   1.329   3.063
  565SOL    HW1 1876   2.131   1.245   3.011
  565SOL    HW2 1877   2.177   1.323   3.146
  566SOL     OW 1878   4.673   1.869   3.603
  566SOL    HW1 1879   4.731   1.930   3.550
  566SOL    HW2 1880   4.642   1.794   3.545
  567SOL     OW 1881   2.867   4.405   2.343
  567SOL    HW1 1882   2.837   4.471   2.274
  567SOL    HW2 1883   2.904   4.324   2.298
  568SOL     OW 1884   2.638   1.485   1.190
  568SOL    HW1 1885   2.692   1.473   1.274
  568SOL    HW2 1886   2.585   1.402   1.174
  569SOL     OW 1887   0.995   3.141   3.669
  569SOL    HW1 1888   0.907   3.124   3.713
  569SOL    HW2 1889   1.063   3.163   3.739
  570SOL     OW 1890   3.139   0.440   3.713
  570SOL    HW1 1891   3.215   0.434   3.778
  570SOL    HW2 1892   3.154   0.517   3.651
  571SOL     OW 1893   0.507   3.602   3.857
  571SOL    HW1 1894   0.598   3.565   3.837
  571SOL    HW2 1895   0.446   3.527   3.884
  572SOL     OW 1896   1.847   4.160   0.692
  572SOL    HW1 1897   1.859   4.064   0.665
  572SOL    HW2 1898   1.936   4.201   0.706
  573SOL     OW 1899   3.873   0.750   3.192
  573SOL    HW1 1900   3.869   0.787   3.099
  573SOL    HW2 1901   3.827   0.813   3.254
  574SOL     OW 1902   3.901   2.060   4.662
  574SOL    HW1 1903   3.825   2.124   4.676
  574SOL    HW2 1904   3.875   1.970   4.696
  575SOL     OW 1905   2.881   2.022   3.680
  575SOL    HW1 1906   2.950   2.050   3.613
  575SOL    HW2 1907   2.926   1.983   3.760
  576SOL     OW 1908   1.249   3.709   3.871
  576SOL    HW1 1909   1.280   3.675   3.960
  576SOL    HW2 1910   1.153   3.683   3.858
  577SOL     OW 1911   3.886   2.048   2.917
  577SOL    HW1 1912   3.878   2.021   3.012
  577SOL    HW2 1913   3.897   1.967   2.860
  578SOL     OW 1914   3.053   0.381   3.075
  578SOL    HW1 1915   3.131   0.420   3.124
  578SOL    HW2 1916   2.969   0.411   3.119
  579SOL     OW 1917   3.648   4.069   2.606
  579SOL    HW1 1918   3.721   4.049   2.671
  579SOL    HW2 1919   3.574   4.003   2.618
  580SOL     OW 1920   4.354   2.201   3.762
  580SOL    HW1 1921   4.296   2.239   3.690
  580SOL    HW2 1922   4.299   2.144   3.823
  581SOL     OW 1923   4.134   2.760   1.771
  581SOL    HW1 1924   4.227   2.786   1.797
  581SOL    HW2 1925   4.073   2.774   1.850
  582SOL     OW 1926   1.751   1.674   2.835
  582SOL    HW1 1927   1.822   1.742   2.819
  582SOL    HW2 1928   1.665   1.721   2.856
  583SOL     OW 1929   2.744   2.664   4.005
  583SOL    HW1 1930   2.667   2.605   3.982
  583SOL    HW2 1931   2.818   2.608   4.042
  584SOL     OW 1932   2.391   3.426   3.349
  584SOL    HW1 1933   2.302   3.407   3.389
  584SOL    HW2 1934   2.445   3.481   3.412
  585SOL     OW 1935   2.550   0.980   2.968
  585SOL    HW1 1936   2.619   0.974   3.040
  585SOL    HW2 1937   2.576   1.051   2.904
  586SOL     OW 1938   1.127   0.645   0.841
  586SOL    HW1 1939   1.086   0.554   0.849
  586SOL    HW2 1940   1.226   0.635   0.830
  587SOL     OW 1941   3.283   2.056   0.295
  587SOL    HW1 1942   3.346   1.980   0.280
  587SOL    HW2 1943   3.193   2.020   0.321
  588SOL     OW 1944   3.392   2.105   1.814
  588SOL    HW1 1945   3.468   2.169   1.829
  588SOL    HW2 1946   3.428   2.013   1.799
  589SOL     OW 1947   2.453   3.220   1.762
  589SOL    HW1 1948   2.484   3.128   1.735
  589SOL    HW2 1949   2.526   3.266   1.812
  590SOL     OW 1950   1.798   3.478   4.626
  590SOL    HW1 1951   1.854   3.517   4.700
  590SOL    HW2 1952   1.822   3.382   4.614
  591SOL     OW 1953   0.929   2.921   3.899
  591SOL    HW1 1954   0.854   2.940   3.963
  591SOL    HW2 1955   1.012   2.967   3.930
  592SOL     OW 1956   3.629   3.708   3.738
  592SOL    HW1 1957   3.711   3.658   3.712
  592SOL    HW2 1958   3.575   3.652   3.801
  593SOL     OW 1959   1.326   4.347   2.508
  593SOL    HW1 1960   1.369   4.257   2.521
  593SOL    HW2 1961   1.372   4.414   2.566
  594SOL     OW 1962   1.398   3.987   4.073
  594SOL    HW1 1963   1.361   4.080   4.080
  594SOL    HW2 1964   1.334   3.930   4.022
  595SOL     OW 1965   0.642   4.400   3.893
  595SOL    HW1 1966   0.591   4.471   3.845
  595SOL    HW2 1967   0.667   4.328   3.827
  596SOL     OW 1968   0.955   3.903   3.615
  596SOL    HW1 1969   0.930   3.936   3.706
  596SOL    HW2 1970   0.999   3.814   3.623
  597SOL     OW 1971   2.134   1.445   1.518
  597SOL    HW1 1972   2.183   1.398   1.591
  597SOL    HW2 1973   2.158   1.403   1.430
  598SOL     OW 1974   2.986   4.631   3.912
  598SOL    HW1 1975   3.077   4.668   3.893
  598SOL    HW2 1976   2.922   4.665   3.843
  599SOL     OW 1977   1.490   1.449   4.575
  599SOL    HW1 1978   1.577   1.494   4.597
  599SOL    HW2 1979   1.415   1.514   4.586
  600SOL     OW 1980   0.671   0.815   3.028
  600SOL    HW1 1981   0.738   0.844   2.960
  600SOL    HW2 1982   0.679   0.716   3.040
  601SOL     OW 1983   2.497   2.382   3.050
  601SOL    HW1 1984   2.477   2.285   3.068
  601SOL    HW2 1985   2.413   2.435   3.061
  602SOL     OW 1986   0.983   3.582   4.452
  602SOL    HW1 1987   0.944   3.640   4.523
  602SOL    HW2 1988   1.061   3.629   4.411
  603SOL     OW 1989   3.094   2.640   0.915
  603SOL    HW1 1990   3.127   2.733   0.898
  603SOL    HW2 1991   3.165   2.588   0.962
  604SOL     OW 1992   3.793   1.315   4.547
  604SOL    HW1 1993   3.810   1.357   4.458
  604SOL    HW2 1994   3.853   1.235   4.558
  605SOL     OW 1995   1.884   3.825   4.429
  605SOL    HW1 1996   1.806   3.768   4.457
  605SOL    HW2 1997   1.903   3.809   4.332
  606SOL     OW 1998   1.372   4.312   3.347
  606SOL    HW1 1999   1.379   4.234   3.283
  606SOL    HW2 2000   1.336   4.391   3.298
  607SOL     OW 2001   0.932   0.471   0.421
  607SOL    HW1 2002   1.028   0.443   0.424
  607SOL    HW2 2003   0.902   0.476   0.326
  608SOL     OW 2004   1.404   2.617   0.221
  608SOL    HW1 2005   1.342   2.588   0.294
  608SOL    HW2 2006   1.494   2.635   0.260
  609SOL     OW 2007   1.234   4.050   3.787
  609SOL    HW1 2008   1.268   4.050   3.693
  609SOL    HW2 2009   1.247   3.959   3.827
  610SOL     OW 2010   3.728   3.699   1.588
  610SOL    HW1 2011   3.747   3.602   1.596
  610SOL    HW2 2012   3.815   3.750   1.594
  611SOL     OW 2013   4.598   1.429   1.265
  611SOL    HW1 2014   4.563   1.487   1.191
  611SOL    HW2 2015   4.529   1.362   1.290
  612SOL     OW 2016   1.624   1.528   3.095
  612SOL    HW1 2017   1.663   1.543   3.186
  612SOL    HW2 2018   1.583   1.437   3.092
  613SOL     OW 2019   2.815   0.974   1.512
  613SOL    HW1 2020   2.866   1.030   1.447
  613SOL    HW2 2021   2.879   0.922   1.568
  614SOL     OW 2022   4.356   1.472   3.922
  614SOL    HW1 2023   4.447   1.460   3.961
  614SOL    HW2 2024   4.314   1.554   3.960
  615SOL     OW 2025   0.628   2.176   2.504
  615SOL    HW1 2026   0.636   2.114   2.582
  615SOL    HW2 2027   0.650   2.269   2.533
  616SOL     OW 2028   2.385   2.426   2.778
  616SOL    HW1 2029   2.393   2.349   2.842
  616SOL    HW2 2030   2.421   2.508   2.821
  617SOL     OW 2031   2.043   3.943   1.417
  617SOL    HW1 2032   2.088   3.856   1.436
  617SOL    HW2 2033   2.105   4.002   1.366
  618SOL     OW 2034   4.449   4.728   2.707
  618SOL    HW1 2035   4.420   4.812   2.752
  618SOL    HW2 2036   4.389   4.710   2.629
  619SOL     OW 2037   3.348   1.702   0.764
  619SOL    HW1 2038   3.326   1.608   0.736
  619SOL    HW2 2039   3.441   1.705   0.800
  620SOL     OW 2040   1.886   2.401   1.965
  620SOL    HW1 2041   1.787   2.395   1.973
  620SOL    HW2 2042   1.927   2.315   1.995
  621SOL     OW 2043   2.253   1.524   0.398
  621SOL    HW1 2044   2.315   1.488   0.468
  621SOL    HW2 2045   2.258   1.624   0.399
  622SOL     OW 2046   0.439   3.453   4.666
  622SOL    HW1 2047   0.527   3.408   4.650
  622SOL    HW2 2048   0.388   3.456   4.580
  623SOL     OW 2049   1.020   4.814   1.532
  623SOL    HW1 2050   0.929   4.850   1.551
  623SOL    HW2 2051   1.025   4.718   1.559
  624SOL     OW 2052   3.224   3.911   4.075
  624SOL    HW1 2053   3.146   3.974   4.069
  624SOL    HW2 2054   3.309   3.962   4.064
  625SOL     OW 2055   0.939   3.268   4.473
  625SOL    HW1 2056   0.998   3.345   4.447
  625SOL    HW2 2057   0.856   3.270   4.417
  626SOL     OW 2058   1.351   3.268   4.777
  626SOL    HW1 2059   1.439   3.314   4.761
  626SOL    HW2 2060   1.277   3.334   4.764
  627SOL     OW 2061   1.821   4.330   0.300
  627SOL    HW1 2062   1.875   4.247   0.281
  627SOL    HW2 2063   1.728   4.304   0.324
  628SOL     OW 2064   1.170   1.040   4.199
  628SOL    HW1 2065   1.181   1.136   4.226
  628SOL    HW2 2066   1.235   1.019   4.126
  629SOL     OW 2067   2.520   3.305   0.228
  629SOL    HW1 2068   2.484   3.398   0.238
  629SOL    HW2 2069   2.453   3.241   0.266
  630SOL     OW 2070   0.270   3.612   0.902
  630SOL    HW1 2071   0.178   3.613   0.863
  630SOL    HW2 2072   0.335   3.583   0.832
  631SOL     OW 2073   2.027   3.211   1.332
  631SOL    HW1 2074   1.973   3.134   1.366
  631SOL    HW2 2075   2.033   3.281   1.403
  632SOL     OW 2076   1.848   2.709   2.398
  632SOL    HW1 2077   1.929   2.742   2.447
  632SOL    HW2 2078   1.797   2.788   2.363
  633SOL     OW 2079   3.501   3.027   4.288
  633SOL    HW1 2080   3.580   2.983   4.246
  633SOL    HW2 2081   3.460   2.964   4.355
  634SOL     OW 2082   1.836   2.834   1.552
  634SOL    HW1 2083   1.903   2.770   1.588
  634SOL    HW2 2084   1.754   2.831   1.607
  635SOL     OW 2085   2.304   2.787   1.752
  635SOL    HW1 2086   2.312   2.832   1.841
  635SOL    HW2 2087   2.219   2.734   1.749
  636SOL     OW 2088   0.739   2.659   0.246
  636SOL    HW1 2089   0.766   2.621   0.334
  636SOL    HW2 2090   0.821   2.691   0.198
  637SOL     OW 2091   3.848   4.364   2.926
  637SOL    HW1 2092   3.815   4.290   2.868
  637SOL    HW2 2093   3.787   4.442   2.918
  638SOL     OW 2094   4.490   4.051   0.193
  638SOL    HW1 2095   4.420   3.981   0.203
  638SOL    HW2 2096   4.574   4.009   0.160
  639SOL     OW 2097   1.199   2.657   0.790
  639SOL    HW1 2098   1.268   2.621   0.727
  639SOL    HW2 2099   1.110   2.655   0.745
  640SOL     OW 2100   1.654   4.227   4.388
  640SOL    HW1 2101   1.576   4.238   4.327
  640SOL    HW2 2102   1.732   4.195   4.335
  641SOL     OW 2103   1.749   2.434   1.719
  641SOL    HW1 2104   1.769   2.341   1.751
  641SOL    HW2 2105   1.834   2.485   1.709
  642SOL     OW 2106   4.303   2.785   3.114
  642SOL    HW1 2107   4.301   2.714   3.043
  642SOL    HW2 2108   4.368   2.757   3.185
  643SOL     OW 2109   1.983   4.078   1.656
  643SOL    HW1 2110   2.068   4.128   1.643
  643SOL    HW2 2111   1.956   4.036   1.569
  644SOL     OW 2112   3.655   2.696   1.674
  644SOL    HW1 2113   3.567   2.653   1.695
  644SOL    HW2 2114   3.672   2.689   1.576
  645SOL     OW 2115   0.458   1.773   1.874
  645SOL    HW1 2116   0.462   1.676   1.848
  645SOL    HW2 2117   0.546   1.816   1.855
  646SOL     OW 2118   4.194   4.072   0.577
  646SOL    HW1 2119   4.198   3.979   0.614
  646SOL    HW2 2120   4.285   4.100   0.546
  647SOL     OW 2121   4.375   0.319   4.716
  647SOL    HW1 2122   4.448   0.260   4.681
  647SOL    HW2 2123   4.306   0.262   4.761
  648SOL     OW 2124   2.391   3.879   2.757
  648SOL    HW1 2125   2.417   3.876   2.854
  648SOL    HW2 2126   2.299   3.917   2.749
  649SOL     OW 2127   0.470   4.217   4.330
  649SOL    HW1 2128   0.490   4.309   4.363
  649SOL    HW2 2129   0.382   4.188   4.366
  650SOL     OW 2130   3.617   3.393   0.185
  650SOL    HW1 2131   3.590   3.475   0.133
  650SOL    HW2 2132   3.566   3.314   0.151
  651SOL     OW 2133   4.320   4.393   3.875
  651SOL    HW1 2134   4.303   4.310   3.821
  651SOL    HW2 2135   4.258   4.465   3.843
  652SOL     OW 2136   3.424   2.068   2.094
  652SOL    HW1 2137   3.350   2.073   2.027
  652SOL    HW2 2138   3.511   2.058   2.046
  653SOL     OW 2139   3.167   1.354   2.876
  653SOL    HW1 2140   3.259   1.393   2.876
  653SOL    HW2 2141   3.114   1.397   2.949
  654SOL     OW 2142   2.083   2.791   0.910
  654SOL    HW1 2143   1.994   2.785   0.955
  654SOL    HW2 2144   2.146   2.726   0.953
  655SOL     OW 2145   1.266   0.728   4.186
  655SOL    HW1 2146   1.213   0.650   4.153
  655SOL    HW2 2147   1.212   0.811   4.176
  656SOL     OW 2148   3.719   3.036   2.259
  656SOL    HW1 2149   3.642   3.080   2.214
  656SOL    HW2 2150   3.733   2.945   2.219
  657SOL     OW 2151   1.300   2.589   4.253
  657SOL    HW1 2152   1.239   2.522   4.297
  657SOL    HW2 2153   1.362   2.627   4.321
  658SOL     OW 2154   3.094   2.073   3.508
  658SOL    HW1 2155   3.123   2.012   3.436
  658SOL    HW2 2156   3.164   2.076   3.580
  659SOL     OW 2157   0.203   3.724   1.176
  659SOL    HW1 2158   0.272   3.684   1.115
  659SOL    HW2 2159   0.151   3.793   1.126
  660SOL     OW 2160   2.618   2.903   0.261
  660SOL    HW1 2161   2.552   2.839   0.223
  660SOL    HW2 2162   2.579   2.995   0.259
  661SOL     OW 2163   0.389   2.085   4.371
  661SOL    HW1 2164   0.334   2.013   4.414
  661SOL    HW2 2165   0.483   2.080   4.404
  662SOL     OW 2166   1.933   4.408   3.104
  662SOL    HW1 2167   1.871   4.419   3.181
  662SOL    HW2 2168   2.011   4.353   3.132
  663SOL     OW 2169   3.404   3.732   4.298
  663SOL    HW1 2170   3.309   3.717   4.271
  663SOL    HW2 2171   3.448   3.792   4.231
  664SOL     OW 2172   1.287   2.654   3.890
  664SOL    HW1 2173   1.202   2.603   3.874
  664SOL    HW2 2174   1.341   2.605   3.959
  665SOL     OW 2175   0.611   4.484   1.567
  665SOL    HW1 2176   0.701   4.515   1.535
  665SOL    HW2 2177   0.624   4.423   1.645
  666SOL     OW 2178   3.985   1.697   4.722
  666SOL    HW1 2179   3.961   1.748   4.639
  666SOL    HW2 2180   4.080   1.667   4.716
  667SOL     OW 2181   2.995   3.326   3.874
  667SOL    HW1 2182   3.046   3.412   3.874
  667SOL    HW2 2183   3.028   3.268   3.799
  668SOL     OW 2184   1.196   4.551   4.548
  668SOL    HW1 2185   1.157   4.619   4.610
  668SOL    HW2 2186   1.295   4.549   4.559
  669SOL     OW 2187   0.758   0.450   3.058
  669SOL    HW1 2188   0.819   0.526   3.038
  669SOL    HW2 2189   0.793   0.367   3.016
  670SOL     OW 2190   0.941   3.198   2.173
  670SOL    HW1 2191   1.029   3.150   2.179
  670SOL    HW2 2192   0.869   3.140   2.210
  671SOL     OW 2193   3.347   1.114   1.364
  671SOL    HW1 2194   3.303   1.104   1.454
  671SOL    HW2 2195   3.429   1.057   1.361
  672SOL     OW 2196   3.136   4.452   2.504
  672SOL    HW1 2197   3.186   4.365   2.502
  672SOL    HW2 2198   3.063   4.449   2.436
  673SOL     OW 2199   2.789   4.705   4.369
  673SOL    HW1 2200   2.883   4.671   4.374
  673SOL    HW2 2201   2.729   4.631   4.340
  674SOL     OW 2202   2.773   2.419   2.982
  674SOL    HW1 2203   2.729   2.447   3.067
  674SOL    HW2 2204   2.715   2.353   2.935
  675SOL     OW 2205   3.621   2.714   0.422
  675SOL    HW1 2206   3.532   2.700   0.379
  675SOL    HW2 2207   3.692   2.713   0.352
  676SOL     OW 2208   1.312   0.412   4.033
  676SOL    HW1 2209   1.384   0.343   4.041
  676SOL    HW2 2210   1.303   0.439   3.937
  677SOL     OW 2211   0.145   1.188   0.721
  677SOL    HW1 2212   0.231   1.238   0.728
  677SOL    HW2 2213   0.164   1.089   0.723
  678SOL     OW 2214   2.988   3.769   2.757
  678SOL    HW1 2215   2.999   3.858   2.713
  678SOL    HW2 2216   2.908   3.771   2.816
  679SOL     OW 2217   4.306   0.381   1.757
  679SOL    HW1 2218   4.367   0.460   1.754
  679SOL    HW2 2219   4.317   0.334   1.845
  680SOL     OW 2220   0.342   3.759   1.837
  680SOL    HW1 2221   0.271   3.690   1.825
  680SOL    HW2 2222   0.398   3.735   1.916
  681SOL     OW 2223   3.548   4.291   3.090
  681SOL    HW1 2224   3.616   4.354   3.052
  681SOL    HW2 2225   3.542   4.210   3.031
  682SOL     OW 2226   0.871   3.370   1.314
  682SOL    HW1 2227   0.947   3.431   1.290
  682SOL    HW2 2228   0.872   3.290   1.254
  683SOL     OW 2229   0.583   3.403   2.213
  683SOL    HW1 2230   0.639   3.480   2.241
  683SOL    HW2 2231   0.492   3.436   2.188
  684SOL     OW 2232   2.282   3.950   3.020
  684SOL    HW1 2233   2.188   3.915   3.011
  684SOL    HW2 2234   2.279   4.050   3.016
  685SOL     OW 2235   3.806   2.348   4.248
  685SOL    HW1 2236   3.856   2.301   4.175
  685SOL    HW2 2237   3.848   2.326   4.336
  686SOL     OW 2238   2.733   2.243   1.851
  686SOL    HW1 2239   2.818   2.199   1.822
  686SOL    HW2 2240   2.754   2.330   1.897
  687SOL     OW 2241   1.222   2.820   2.189
  687SOL    HW1 2242   1.133   2.805   2.146
  687SOL    HW2 2243   1.217   2.902   2.247
  688SOL     OW 2244   2.522   0.815   3.745
  688SOL    HW1 2245   2.446   0.760   3.711
  688SOL    HW2 2246   2.605   0.759   3.749
  689SOL     OW 2247   2.628   2.120   1.278
  689SOL    HW1 2248   2.658   2.069   1.359
  689SOL    HW2 2249   2.545   2.077   1.242
  690SOL     OW 2250   2.149   0.177   4.247
  690SOL    HW1 2251   2.109   0.157   4.337
  690SOL    HW2 2252   2.098   0.251   4.204
  691SOL     OW 2253   2.847   1.839   0.513
  691SOL    HW1 2254   2.941   1.807   0.500
  691SOL    HW2 2255   2.784   1.765   0.490
  692SOL     OW 2256   2.544   0.544   2.962
  692SOL    HW1 2257   2.517   0.453   2.929
  692SOL    HW2 2258   2.643   0.554   2.953
  693SOL     OW 2259   4.235   3.599   0.495
  693SOL    HW1 2260   4.229   3.518   0.437
  693SOL    HW2 2261   4.151   3.651   0.488
  694SOL     OW 2262   2.561   1.540   0.272
  694SOL    HW1 2263   2.537   1.493   0.357
  694SOL    HW2 2264   2.529   1.486   0.195
  695SOL     OW 2265   2.710   0.576   4.101
  695SOL    HW1 2266   2.808   0.557   4.111
  695SOL    HW2 2267   2.663   0.550   4.185
  696SOL     OW 2268   1.443   2.963   3.922
  696SOL    HW1 2269   1.398   2.875   3.936
  696SOL    HW2 2270   1.374   3.032   3.900
  697SOL     OW 2271   2.701   0.357   1.122
  697SOL    HW1 2272   2.692   0.443   1.073
  697SOL    HW2 2273   2.611   0.316   1.134
  698SOL     OW 2274   3.255   4.031   2.111
  698SOL    HW1 2275   3.277   3.934   2.118
  698SOL    HW2 2276   3.308   4.082   2.180
  699SOL     OW 2277   3.117   4.272   3.357
  699SOL    HW1 2278   3.137   4.351   3.414
  699SOL    HW2 2279   3.082   4.303   3.269
  700SOL     OW 2280   0.203   4.595   0.339
  700SOL    HW1 2281   0.268   4.594   0.264
  700SOL    HW2 2282   0.193   4.502   0.375
  701SOL     OW 2283   1.730   3.227   3.187
  701SOL    HW1 2284   1.784   3.144   3.190
  701SOL    HW2 2285   1.695   3.246   3.279
  702SOL     OW 2286   0.734   3.634   1.310
  702SOL    HW1 2287   0.718   3.536   1.310
  702SOL    HW2 2288   0.823   3.654   1.352
  703SOL     OW 2289   3.713   1.561   2.989
  703SOL    HW1 2290   3.712   1.494   3.064
  703SOL    HW2 2291   3.620   1.593   2.973
  704SOL     OW 2292   4.083   4.718   2.079
  704SOL    HW1 2293   4.117   4.810   2.062
  704SOL    HW2 2294   4.160   4.654   2.080
  705SOL     OW 2295   2.955   0.229   1.645
  705SOL    HW1 2296   2.899   0.311   1.630
  705SOL    HW2 2297   2.903   0.148   1.617
  706SOL     OW 2298   1.641   4.317   0.862
  706SOL    HW1 2299   1.720   4.282   0.912
  706SOL    HW2 2300   1.645   4.284   0.768
  707SOL     OW 2301   0.267   0.672   2.858
  707SOL    HW1 2302   0.187   0.686   2.800
  707SOL    HW2 2303   0.290   0.758   2.904
  708SOL     OW 2304   0.274   2.032   4.089
  708SOL    HW1 2305   0.270   2.039   4.189
  708SOL    HW2 2306   0.351   2.086   4.056
  709SOL     OW 2307   2.700   2.866   0.699
  709SOL    HW1 2308   2.674   2.963   0.697
  709SOL    HW2 2309   2.638   2.815   0.640
  710SOL     OW 2310   4.798   1.967   0.620
  710SOL    HW1 2311   4.754   2.050   0.654
  710SOL    HW2 2312   4.826   1.911   0.699
  711SOL     OW 2313   2.420   3.043   0.846
  711SOL    HW1 2314   2.328   3.005   0.863
  711SOL    HW2 2315   2.466   3.055   0.934
  712SOL     OW 2316   2.889   0.751   3.093
  712SOL    HW1 2317   2.952   0.733   3.168
  712SOL    HW2 2318   2.823   0.676   3.086
  713SOL     OW 2319   2.445   0.364   0.825
  713SOL    HW1 2320   2.368   0.390   0.767
  713SOL    HW2 2321   2.459   0.265   0.820
  714SOL     OW 2322   1.050   3.997   2.153
  714SOL    HW1 2323   1.086   3.954   2.070
  714SOL    HW2 2324   1.047   3.929   2.227
  715SOL     OW 2325   3.875   1.267   3.026
  715SOL    HW1 2326   3.775   1.272   3.023
  715SOL    HW2 2327   3.912   1.360   3.027
  716SOL     OW 2328   3.811   4.337   3.752
  716SOL    HW1 2329   3.734   4.340   3.816
  716SOL    HW2 2330   3.894   4.310   3.801
  717SOL     OW 2331   1.552   4.840   4.065
  717SOL    HW1 2332   1.456   4.845   4.093
  717SOL    HW2 2333   1.597   4.766   4.114
  718SOL     OW 2334   3.294   0.201   2.441
  718SOL    HW1 2335   3.305   0.247   2.353
  718SOL    HW2 2336   3.376   0.147   2.460
  719SOL     OW 2337   4.013   0.443   0.468
  719SOL    HW1 2338   3.936   0.428   0.530
  719SOL    HW2 2339   4.081   0.500   0.515
  720SOL     OW 2340   1.174   4.389   2.145
  720SOL    HW1 2341   1.195   4.312   2.204
  720SOL    HW2 2342   1.075   4.392   2.129
  721SOL     OW 2343   2.079   1.442   2.617
  721SOL    HW1 2344   2.175   1.459   2.640
  721SOL    HW2 2345   2.050   1.357   2.660
  722SOL     OW 2346   3.484   0.495   3.676
  722SOL    HW1 2347   3.432   0.520   3.758
  722SOL    HW2 2348   3.573   0.540   3.679
  723SOL     OW 2349   3.817   0.978   3.033
  723SOL    HW1 2350   3.754   1.049   3.003
  723SOL    HW2 2351   3.911   1.011   3.023
  724SOL     OW 2352   0.376   2.203   2.704
  724SOL    HW1 2353   0.437   2.259   2.759
  724SOL    HW2 2354   0.285   2.202   2.747
  725SOL     OW 2355   0.955   1.984   1.740
  725SOL    HW1 2356   1.015   2.064   1.744
  725SOL    HW2 2357   0.955   1.938   1.829
  726SOL     OW 2358   1.470   3.876   3.741
  726SOL    HW1 2359   1.446   3.779   3.734
  726SOL    HW2 2360   1.546   3.896   3.679
  727SOL     OW 2361   2.742   2.139   4.292
  727SOL    HW1 2362   2.679   2.074   4.249
  727SOL    HW2 2363   2.797   2.092   4.361
  728SOL     OW 2364   3.222   4.113   2.537
  728SOL    HW1 2365   3.298   4.165   2.576
  728SOL    HW2 2366   3.138   4.134   2.587
  729SOL     OW 2367   4.335   1.394   4.370
  729SOL    HW1 2368   4.265   1.327   4.396
  729SOL    HW2 2369   4.424   1.350   4.368
  730SOL     OW 2370   0.809   4.263   3.709
  730SOL    HW1 2371   0.897   4.260   3.757
  730SOL    HW2 2372   0.817   4.322   3.629
  731SOL     OW 2373   4.706   1.907   3.182
  731SOL    HW1 2374   4.743   1.999   3.173
  731SOL    HW2 2375   4.705   1.863   3.092
  732SOL     OW 2376   2.157   4.356   1.440
  732SOL    HW1 2377   2.131   4.364   1.536
  732SOL    HW2 2378   2.256   4.371   1.432
  733SOL     OW 2379   3.115   2.752   1.499
  733SOL    HW1 2380   3.064   2.690   1.439
  733SOL    HW2 2381   3.053   2.789   1.568
  734SOL     OW 2382   3.696   4.647   1.327
  734SOL    HW1 2383   3.766   4.705   1.371
  734SOL    HW2 2384   3.667   4.577   1.392
  735SOL     OW 2385   1.167   2.351   3.687
  735SOL    HW1 2386   1.249   2.302   3.657
  735SOL    HW2 2387   1.140   2.417   3.616
  736SOL     OW 2388   1.125   0.230   3.813
  736SOL    HW1 2389   1.068   0.148   3.821
  736SOL    HW2 2390   1.068   0.311   3.826
  737SOL     OW 2391   2.765   0.829   2.183
  737SOL    HW1 2392   2.674   0.788   2.190
  737SOL    HW2 2393   2.833   0.763   2.216
  738SOL     OW 2394   1.989   2.469   1.398
  738SOL    HW1 2395   2.041   2.550   1.426
  738SOL    HW2 2396   1.894   2.496   1.383
  739SOL     OW 2397   2.086   2.002   0.263
  739SOL    HW1 2398   2.170   2.034   0.220
  739SOL    HW2 2399   2.008   2.045   0.217
  740SOL     OW 2400   4.468   1.344   0.996
  740SOL    HW1 2401   4.386   1.328   1.051
  740SOL    HW2 2402   4.539   1.279   1.024
  741SOL     OW 2403   2.380   0.678   3.159
  741SOL    HW1 2404   2.371   0.667   3.060
  741SOL    HW2 2405   2.456   0.622   3.192
  742SOL     OW 2406   4.774   1.540   1.457
  742SOL    HW1 2407   4.747   1.494   1.373
  742SOL    HW2 2408   4.744   1.486   1.536
  743SOL     OW 2409   4.687   4.161   4.281
  743SOL    HW1 2410   4.773   4.199   4.316
  743SOL    HW2 2411   4.691   4.061   4.286
  744SOL     OW 2412   1.711   4.225   2.103
  744SOL    HW1 2413   1.728   4.127   2.108
  744SOL    HW2 2414   1.615   4.241   2.081
  745SOL     OW 2415   1.823   1.554   4.088
  745SOL    HW1 2416   1.771   1.615   4.147
  745SOL    HW2 2417   1.785   1.462   4.093
  746SOL     OW 2418   1.003   4.650   3.764
  746SOL    HW1 2419   1.091   4.689   3.737
  746SOL    HW2 2420   0.998   4.555   3.734
  747SOL     OW 2421   1.540   4.668   1.782
  747SOL    HW1 2422   1.633   4.687   1.816
  747SOL    HW2 2423   1.515   4.575   1.806
  748SOL     OW 2424   3.284   1.195   1.044
  748SOL    HW1 2425   3.248   1.288   1.042
  748SOL    HW2 2426   3.343   1.184   1.124
  749SOL     OW 2427   2.516   4.792   3.394
  749SOL    HW1 2428   2.540   4.713   3.451
  749SOL    HW2 2429   2.598   4.846   3.376
  750SOL     OW 2430   3.874   2.844   2.653
  750SOL    HW1 2431   3.974   2.855   2.652
  750SOL    HW2 2432   3.831   2.933   2.638
  751SOL     OW 2433   0.679   4.570   0.935
  751SOL    HW1 2434   0.711   4.610   1.021
  751SOL    HW2 2435   0.759   4.542   0.881
  752SOL     OW 2436   1.321   0.973   3.980
  752SOL    HW1 2437   1.368   0.885   3.984
  752SOL    HW2 2438   1.313   1.002   3.885
  753SOL     OW 2439   4.422   3.688   1.393
  753SOL    HW1 2440   4.490   3.614   1.387
  753SOL    HW2 2441   4.334   3.649   1.421
  754SOL     OW 2442   2.788   1.523   1.965
  754SOL    HW1 2443   2.784   1.584   1.886
  754SOL    HW2 2444   2.834   1.569   2.041
  755SOL     OW 2445   2.313   3.902   1.288
  755SOL    HW1 2446   2.333   3.998   1.307
  755SOL    HW2 2447   2.385   3.844   1.326
  756SOL     OW 2448   1.578   1.136   3.057
  756SOL    HW1 2449   1.633   1.212   3.023
  756SOL    HW2 2450   1.488   1.171   3.085
  757SOL     OW 2451   0.399   4.745   3.715
  757SOL    HW1 2452   0.409   4.664   3.659
  757SOL    HW2 2453   0.479   4.804   3.703
  758SOL     OW 2454   0.897   1.327   3.621
  758SOL    HW1 2455   0.865   1.234   3.641
  758SOL    HW2 2456   0.830   1.393   3.655
  759SOL     OW 2457   2.298   1.719   1.629
  759SOL    HW1 2458   2.311   1.739   1.532
  759SOL    HW2 2459   2.354   1.640   1.653
  760SOL     OW 2460   2.295   0.426   3.977
  760SOL    HW1 2461   2.351   0.470   3.907
  760SOL    HW2 2462   2.237   0.495   4.020
  761SOL     OW 2463   1.746   4.394   1.250
  761SOL    HW1 2464   1.817   4.462   1.270
  761SOL    HW2 2465   1.774   4.340   1.170
  762SOL     OW 2466   0.763   3.673   3.723
  762SOL    HW1 2467   0.703   3.750   3.744
  762SOL    HW2 2468   0.759   3.654   3.625
  763SOL     OW 2469   2.583   1.529   2.730
  763SOL    HW1 2470   2.621   1.622   2.737
  763SOL    HW2 2471   2.658   1.464   2.722
  764SOL     OW 2472   0.487   2.773   4.685
  764SOL    HW1 2473   0.530   2.702   4.629
  764SOL    HW2 2474   0.545   2.793   4.764
  765SOL     OW 2475   4.424   0.623   1.154
  765SOL    HW1 2476   4.489   0.616   1.078
  765SOL    HW2 2477   4.391   0.531   1.177
  766SOL     OW 2478   1.412   4.609   0.561
  766SOL    HW1 2479   1.324   4.626   0.516
  766SOL    HW2 2480   1.480   4.673   0.526
  767SOL     OW 2481   1.789   4.444   3.982
  767SOL    HW1 2482   1.816   4.536   3.951
  767SOL    HW2 2483   1.861   4.379   3.955
  768SOL     OW 2484   0.664   3.912   3.863
  768SOL    HW1 2485   0.615   3.999   3.857
  768SOL    HW2 2486   0.617   3.853   3.929
  769SOL     OW 2487   2.390   2.052   2.619
  769SOL    HW1 2488   2.375   1.960   2.653
  769SOL    HW2 2489   2.308   2.082   2.568
  770SOL     OW 2490   2.215   1.858   1.276
  770SOL    HW1 2491   2.196   1.862   1.178
  770SOL    HW2 2492   2.187   1.945   1.318
  771SOL     OW 2493   3.625   3.738   2.233
  771SOL    HW1 2494   3.620   3.812   2.300
  771SOL    HW2 2495   3.656   3.774   2.146
  772SOL     OW 2496   3.535   0.626   1.808
  772SOL    HW1 2497   3.464   0.695   1.793
  772SOL    HW2 2498   3.522   0.585   1.898
  773SOL     OW 2499   2.103   2.657   1.162
  773SOL    HW1 2500   2.045   2.687   1.238
  773SOL    HW2 2501   2.121   2.559   1.172
  774SOL     OW 2502   2.374   3.916   3.764
  774SOL    HW1 2503   2.461   3.867   3.763
  774SOL    HW2 2504   2.372   3.978   3.842
  775SOL     OW 2505   4.323   3.727   2.081
  775SOL    HW1 2506   4.339   3.786   2.002
  775SOL    HW2 2507   4.246   3.666   2.062
  776SOL     OW 2508   3.947   2.179   2.542
  776SOL    HW1 2509   3.890   2.227   2.609
  776SOL    HW2 2510   4.003   2.111   2.590
  777SOL     OW 2511   4.707   3.157   4.156
  777SOL    HW1 2512   4.680   3.074   4.204
  777SOL    HW2 2513   4.691   3.145   4.058
  778SOL     OW 2514   0.767   2.213   1.165
  778SOL    HW1 2515   0.710   2.135   1.138
  778SOL    HW2 2516   0.802   2.198   1.257
  779SOL     OW 2517   3.113   4.505   1.729
  779SOL    HW1 2518   3.139   4.409   1.741
  779SOL    HW2 2519   3.194   4.563   1.742
  780SOL     OW 2520   3.524   2.475   4.385
  780SOL    HW1 2521   3.492   2.564   4.354
  780SOL    HW2 2522   3.610   2.453   4.338
  781SOL     OW 2523   1.328   2.940   3.462
  781SOL    HW1 2524   1.377   2.865   3.505
  781SOL    HW2 2525   1.385   3.022   3.464
  782SOL     OW 2526   0.703   2.130   1.667
  782SOL    HW1 2527   0.606   2.108   1.682
  782SOL    HW2 2528   0.728   2.105   1.574
  783SOL     OW 2529   3.760   3.255   2.029
  783SOL    HW1 2530   3.858   3.249   2.010
  783SOL    HW2 2531   3.719   3.164   2.019
  784SOL     OW 2532   3.741   3.554   4.226
  784SOL    HW1 2533   3.836   3.523   4.222
  784SOL    HW2 2534   3.708   3.546   4.320
  785SOL     OW 2535   2.960   3.791   1.614
  785SOL    HW1 2536   3.041   3.733   1.616
  785SOL    HW2 2537   2.987   3.884   1.589
  786SOL     OW 2538   2.649   4.725   4.635
  786SOL    HW1 2539   2.591   4.659   4.587
  786SOL    HW2 2540   2.735   4.735   4.584
  787SOL     OW 2541   3.194   2.339   0.311
  787SOL    HW1 2542   3.268   2.405   0.326
  787SOL    HW2 2543   3.234   2.251   0.286
  788SOL     OW 2544   0.423   2.768   2.135
  788SOL    HW1 2545   0.364   2.691   2.158
  788SOL    HW2 2546   0.447   2.763   2.038
  789SOL     OW 2547   4.008   0.219   3.774
  789SOL    HW1 2548   3.922   0.269   3.763
  789SOL    HW2 2549   4.080   0.283   3.800
  790SOL     OW 2550   2.559   2.759   1.443
  790SOL    HW1 2551   2.656   2.760   1.469
  790SOL    HW2 2552   2.544   2.688   1.374
  791SOL     OW 2553   1.435   2.717   1.025
  791SOL    HW1 2554   1.418   2.715   1.124
  791SOL    HW2 2555   1.351   2.692   0.977
  792SOL     OW 2556   3.509   4.770   0.904
  792SOL    HW1 2557   3.564   4.806   0.829
  792SOL    HW2 2558   3.557   4.784   0.990
  793SOL     OW 2559   2.611   3.080   2.352
  793SOL    HW1 2560   2.638   3.138   2.429
  793SOL    HW2 2561   2.693   3.043   2.308
  794SOL     OW 2562   1.463   4.528   2.836
  794SOL    HW1 2563   1.376   4.488   2.806
  794SOL    HW2 2564   1.451   4.567   2.927
  795SOL     OW 2565   1.758   1.134   4.375
  795SOL    HW1 2566   1.702   1.055   4.348
  795SOL    HW2 2567   1.850   1.123   4.337
  796SOL     OW 2568   1.317   3.405   2.203
  796SOL    HW1 2569   1.370   3.349   2.268
  796SOL    HW2 2570   1.243   3.350   2.166
  797SOL     OW 2571   2.734   0.362   1.934
  797SOL    HW1 2572   2.706   0.287   1.874
  797SOL    HW2 2573   2.733   0.447   1.883
  798SOL     OW 2574   1.051   0.738   0.188
  798SOL    HW1 2575   0.962   0.782   0.180
  798SOL    HW2 2576   1.052   0.680   0.270
  799SOL     OW 2577   1.173   0.349   2.677
  799SOL    HW1 2578   1.245   0.341   2.746
  799SOL    HW2 2579   1.174   0.441   2.639
  800SOL     OW 2580   2.656   0.348   4.626
  800SOL    HW1 2581   2.610   0.400   4.698
  800SOL    HW2 2582   2.734   0.300   4.665
  801SOL     OW 2583   0.264   0.832   3.361
  801SOL    HW1 2584   0.326   0.908   3.380
  801SOL    HW2 2585   0.310   0.746   3.381
  802SOL     OW 2586   4.104   0.825   3.915
  802SOL    HW1 2587   4.032   0.895   3.914
  802SOL    HW2 2588   4.133   0.810   4.010
  803SOL     OW 2589   4.467   1.794   0.167
  803SOL    HW1 2590   4.461   1.746   0.255
  803SOL    HW2 2591   4.560   1.828   0.155
  804SOL     OW 2592   4.034   4.759   4.195
  804SOL    HW1 2593   4.027   4.850   4.235
  804SOL    HW2 2594   3.951   4.740   4.143
  805SOL     OW 2595   1.135   1.841   4.037
  805SOL    HW1 2596   1.114   1.751   4.001
  805SOL    HW2 2597   1.205   1.885   3.980
  806SOL     OW 2598   1.053   1.501   2.523
  806SOL    HW1 2599   1.041   1.531   2.617
  806SOL    HW2 2600   1.024   1.574   2.461
  807SOL     OW 2601   0.802   4.109   2.233
  807SOL    HW1 2602   0.806   4.106   2.133
  807SOL    HW2 2603   0.895   4.122   2.269
  808SOL     OW 2604   1.917   0.798   0.244
  808SOL    HW1 2605   1.823   0.779   0.274
  808SOL    HW2 2606   1.942   0.733   0.172
  809SOL     OW 2607   4.083   4.529   0.494
  809SOL    HW1 2608   4.154   4.597   0.513
  809SOL    HW2 2609   3.995   4.565   0.523
  810SOL     OW 2610   1.124   3.102   4.040
  810SOL    HW1 2611   1.138   3.071   4.134
  810SOL    HW2 2612   1.153   3.197   4.032
  811SOL     OW 2613   0.349   1.060   2.120
  811SOL    HW1 2614   0.270   1.082   2.177
  811SOL    HW2 2615   0.429   1.109   2.155
  812SOL     OW 2616   0.804   0.974   0.540
  812SOL    HW1 2617   0.800   1.048   0.608
  812SOL    HW2 2618   0.815   0.887   0.587
  813SOL     OW 2619   4.702   4.706   3.075
  813SOL    HW1 2620   4.630   4.727   3.009
  813SOL    HW2 2621   4.688   4.614   3.110
  814SOL     OW 2622   2.532   4.680   0.680
  814SOL    HW1 2623   2.591   4.745   0.632
  814SOL    HW2 2624   2.438   4.716   0.683
  815SOL     OW 2625   4.518   0.551   2.686
  815SOL    HW1 2626   4.445   0.581   2.748
  815SOL    HW2 2627   4.545   0.458   2.710
  816SOL     OW 2628   2.770   1.684   0.150
  816SOL    HW1 2629   2.801   1.592   0.174
  816SOL    HW2 2630   2.673   1.693   0.174
  817SOL     OW 2631   1.670   3.153   2.193
  817SOL    HW1 2632   1.661   3.242   2.148
  817SOL    HW2 2633   1.719   3.090   2.133
  818SOL     OW 2634   2.998   4.144   1.598
  818SOL    HW1 2635   2.901   4.122   1.607
  818SOL    HW2 2636   3.040   4.146   1.688
  819SOL     OW 2637   0.704   3.379   3.065
  819SOL    HW1 2638   0.747   3.369   2.975
  819SOL    HW2 2639   0.626   3.441   3.058
  820SOL     OW 2640   1.569   4.050   3.457
  820SOL    HW1 2641   1.477   4.010   3.457
  820SOL    HW2 2642   1.565   4.141   3.414
  821SOL     OW 2643   4.606   1.708   1.633
  821SOL    HW1 2644   4.682   1.690   1.571
  821SOL    HW2 2645   4.570   1.800   1.616
  822SOL     OW 2646   2.584   4.224   0.172
  822SOL    HW1 2647   2.658   4.159   0.190
  822SOL    HW2 2648   2.623   4.313   0.149
  823SOL     OW 2649   0.398   1.920   2.517
  823SOL    HW1 2650   0.388   2.010   2.560
  823SOL    HW2 2651   0.455   1.930   2.435
  824SOL     OW 2652   1.856   1.084   1.310
  824SOL    HW1 2653   1.760   1.058   1.317
  824SOL    HW2 2654   1.863   1.184   1.302
  825SOL     OW 2655   4.533   2.147   2.692
  825SOL    HW1 2656   4.474   2.098   2.628
  825SOL    HW2 2657   4.623   2.161   2.651
  826SOL     OW 2658   1.262   3.439   0.630
  826SOL    HW1 2659   1.320   3.520   0.631
  826SOL    HW2 2660   1.166   3.468   0.621
  827SOL     OW 2661   3.748   4.772   4.071
  827SOL    HW1 2662   3.781   4.852   4.022
  827SOL    HW2 2663   3.675   4.729   4.019
  828SOL     OW 2664   4.169   1.076   3.087
  828SOL    HW1 2665   4.104   1.152   3.086
  828SOL    HW2 2666   4.260   1.110   3.112
  829SOL     OW 2667   1.406   1.313   4.828
  829SOL    HW1 2668   1.447   1.288   4.740
  829SOL    HW2 2669   1.349   1.394   4.815
  830SOL     OW 2670   3.983   0.956   1.459
  830SOL    HW1 2671   3.900   0.992   1.501
  830SOL    HW2 2672   3.964   0.866   1.420
  831SOL     OW 2673   1.758   4.851   0.217
  831SOL    HW1 2674   1.801   4.841   0.307
  831SOL    HW2 2675   1.746   4.760   0.177
  832SOL     OW 2676   1.062   1.921   3.228
  832SOL    HW1 2677   1.007   1.927   3.311
  832SOL    HW2 2678   1.083   1.824   3.210
  833SOL     OW 2679   1.278   0.477   1.734
  833SOL    HW1 2680   1.256   0.553   1.794
  833SOL    HW2 2681   1.350   0.422   1.775
  834SOL     OW 2682   0.774   1.129   1.822
  834SOL    HW1 2683   0.801   1.134   1.918
  834SOL    HW2 2684   0.775   1.034   1.792
  835SOL     OW 2685   2.385   4.402   4.561
  835SOL    HW1 2686   2.305   4.460   4.545
  835SOL    HW2 2687   2.422   4.372   4.472
  836SOL     OW 2688   0.339   1.460   3.118
  836SOL    HW1 2689   0.245   1.427   3.124
  836SOL    HW2 2690   0.391   1.425   3.195
  837SOL     OW 2691   0.897   0.897   4.381
  837SOL    HW1 2692   0.950   0.924   4.461
  837SOL    HW2 2693   0.958   0.887   4.303
  838SOL     OW 2694   2.197   3.036   2.112
  838SOL    HW1 2695   2.201   3.077   2.021
  838SOL    HW2 2696   2.282   3.055   2.161
  839SOL     OW 2697   0.398   0.994   4.743
  839SOL    HW1 2698   0.427   1.089   4.748
  839SOL    HW2 2699   0.444   0.949   4.666
  840SOL     OW 2700   3.640   2.280   1.883
  840SOL    HW1 2701   3.717   2.218   1.864
  840SOL    HW2 2702   3.632   2.346   1.809
  841SOL     OW 2703   0.792   2.679   4.885
  841SOL    HW1 2704   0.770   2.607   4.820
  841SOL    HW2 2705   0.789   2.768   4.838
  842SOL     OW 2706   2.942   2.340   3.231
  842SOL    HW1 2707   2.999   2.362   3.310
  842SOL    HW2 2708   2.967   2.400   3.155
  843SOL     OW 2709   2.942   0.970   1.948
  843SOL    HW1 2710   2.864   0.911   1.969
  843SOL    HW2 2711   2.936   1.054   2.002
  844SOL     OW 2712   3.313   0.483   2.844
  844SOL    HW1 2713   3.272   0.393   2.863
  844SOL    HW2 2714   3.405   0.486   2.882
  845SOL     OW 2715   3.481   1.515   3.368
  845SOL    HW1 2716   3.395   1.509   3.419
  845SOL    HW2 2717   3.464   1.489   3.273
  846SOL     OW 2718   3.146   0.515   4.562
  846SOL    HW1 2719   3.059   0.564   4.570
  846SOL    HW2 2720   3.195   0.520   4.649
  847SOL     OW 2721   2.443   2.537   3.376
  847SOL    HW1 2722   2.360   2.580   3.409
  847SOL    HW2 2723   2.455   2.559   3.279
  848SOL     OW 2724   3.899   4.113   0.629
  848SOL    HW1 2725   3.976   4.068   0.582
  848SOL    HW2 2726   3.878   4.199   0.582
  849SOL     OW 2727   3.658   2.666   2.056
  849SOL    HW1 2728   3.678   2.595   1.989
  849SOL    HW2 2729   3.661   2.626   2.148
  850SOL     OW 2730   0.780   2.439   0.996
  850SOL    HW1 2731   0.743   2.514   1.052
  850SOL    HW2 2732   0.764   2.353   1.043
  851SOL     OW 2733   3.118   2.254   2.583
  851SOL    HW1 2734   3.045   2.289   2.524
  851SOL    HW2 2735   3.077   2.213   2.664
  852SOL     OW 2736   3.218   3.375   4.118
  852SOL    HW1 2737   3.264   3.301   4.167
  852SOL    HW2 2738   3.120   3.354   4.114
  853SOL     OW 2739   2.183   2.969   1.181
  853SOL    HW1 2740   2.142   3.059   1.196
  853SOL    HW2 2741   2.210   2.961   1.085
  854SOL     OW 2742   3.097   0.396   2.183
  854SOL    HW1 2743   3.048   0.319   2.224
  854SOL    HW2 2744   3.076   0.479   2.234
  855SOL     OW 2745   2.860   2.505   4.307
  855SOL    HW1 2746   2.811   2.422   4.333
  855SOL    HW2 2747   2.889   2.553   4.389
  856SOL     OW 2748   0.568   1.731   3.228
  856SOL    HW1 2749   0.663   1.700   3.232
  856SOL    HW2 2750   0.510   1.654   3.201
  857SOL     OW 2751   1.381   2.627   0.558
  857SOL    HW1 2752   1.471   2.667   0.577
  857SOL    HW2 2753   1.326   2.694   0.508
  858SOL     OW 2754   0.945   2.746   0.652
  858SOL    HW1 2755   0.872   2.696   0.605
  858SOL    HW2 2756   0.907   2.829   0.693
  859SOL     OW 2757   3.164   3.604   2.576
  859SOL    HW1 2758   3.204   3.518   2.607
  859SOL    HW2 2759   3.137   3.658   2.655
  860SOL     OW 2760   1.641   4.191   4.067
  860SOL    HW1 2761   1.668   4.257   3.996
  860SOL    HW2 2762   1.620   4.103   4.023
  861SOL     OW 2763   1.390   1.637   0.258
  861SOL    HW1 2764   1.424   1.544   0.246
  861SOL    HW2 2765   1.466   1.702   0.248
  862SOL     OW 2766   3.435   2.289   1.522
  862SOL    HW1 2767   3.433   2.328   1.614
  862SOL    HW2 2768   3.523   2.242   1.508
  863SOL     OW 2769   4.664   2.420   4.402
  863SOL    HW1 2770   4.751   2.378   4.427
  863SOL    HW2 2771   4.623   2.370   4.326
  864SOL     OW 2772   2.559   0.874   1.339
  864SOL    HW1 2773   2.639   0.902   1.391
  864SOL    HW2 2774   2.585   0.803   1.274
  865SOL     OW 2775   4.767   1.725   2.947
  865SOL    HW1 2776   4.838   1.774   2.895
  865SOL    HW2 2777   4.746   1.639   2.901
  866SOL     OW 2778   2.271   1.030   4.049
  866SOL    HW1 2779   2.216   1.105   4.085
  866SOL    HW2 2780   2.366   1.060   4.042
  867SOL     OW 2781   0.484   4.237   0.210
  867SOL    HW1 2782   0.559   4.281   0.161
  867SOL    HW2 2783   0.455   4.296   0.286
  868SOL     OW 2784   3.617   4.317   2.766
  868SOL    HW1 2785   3.565   4.235   2.791
  868SOL    HW2 2786   3.658   4.304   2.676
  869SOL     OW 2787   1.256   3.920   3.395
  869SOL    HW1 2788   1.159   3.900   3.383
  869SOL    HW2 2789   1.308   3.835   3.397
  870SOL     OW 2790   4.791   2.878   3.798
  870SOL    HW1 2791   4.761   2.953   3.740
  870SOL    HW2 2792   4.766   2.791   3.755
  871SOL     OW 2793   1.530   4.669   2.290
  871SOL    HW1 2794   1.514   4.571   2.279
  871SOL    HW2 2795   1.626   4.685   2.312
  872SOL     OW 2796   4.706   2.543   1.812
  872SOL    HW1 2797   4.664   2.594   1.887
  872SOL    HW2 2798   4.651   2.557   1.729
  873SOL     OW 2799   1.731   3.925   4.172
  873SOL    HW1 2800   1.663   3.892   4.106
  873SOL    HW2 2801   1.706   4.017   4.202
  874SOL     OW 2802   1.781   2.456   1.158
  874SOL    HW1 2803   1.861   2.504   1.123
  874SOL    HW2 2804   1.744   2.507   1.236
  875SOL     OW 2805   2.676   0.274   3.347
  875SOL    HW1 2806   2.653   0.183   3.380
  875SOL    HW2 2807   2.670   0.339   3.423
  876SOL     OW 2808   0.283   1.500   0.697
  876SOL    HW1 2809   0.251   1.593   0.716
  876SOL    HW2 2810   0.382   1.501   0.688
  877SOL     OW 2811   4.501   1.915   2.925
  877SOL    HW1 2812   4.444   1.872   2.995
  877SOL    HW2 2813   4.480   2.012   2.921
  878SOL     OW 2814   4.519   0.726   3.596
  878SOL    HW1 2815   4.577   0.646   3.585
  878SOL    HW2 2816   4.429   0.708   3.556
  879SOL     OW 2817   2.335   1.066   1.346
  879SOL    HW1 2818   2.354   1.117   1.262
  879SOL    HW2 2819   2.406   0.997   1.359
  880SOL     OW 2820   1.565   3.467   0.763
  880SOL    HW1 2821   1.494   3.400   0.785
  880SOL    HW2 2822   1.526   3.559   0.768
  881SOL     OW 2823   3.094   0.226   0.862
  881SOL    HW1 2824   3.143   0.145   0.829
  881SOL    HW2 2825   3.160   0.295   0.890
  882SOL     OW 2826   4.141   2.819   2.172
  882SOL    HW1 2827   4.206   2.895   2.181
  882SOL    HW2 2828   4.062   2.837   2.231
  883SOL     OW 2829   2.040   0.909   3.151
  883SOL    HW1 2830   2.041   0.810   3.168
  883SOL    HW2 2831   2.109   0.952   3.210
  884SOL     OW 2832   3.663   3.039   0.415
  884SOL    HW1 2833   3.590   3.014   0.478
  884SOL    HW2 2834   3.737   3.084   0.465
  885SOL     OW 2835   4.750   4.586   3.505
  885SOL    HW1 2836   4.818   4.658   3.490
  885SOL    HW2 2837   4.667   4.626   3.544
  886SOL     OW 2838   2.411   2.983   4.137
  886SOL    HW1 2839   2.504   2.951   4.121
  886SOL    HW2 2840   2.403   3.015   4.232
  887SOL     OW 2841   2.113   4.043   0.925
  887SOL    HW1 2842   2.110   3.944   0.911
  887SOL    HW2 2843   2.102   4.089   0.837
  888SOL     OW 2844   1.753   1.544   2.352
  888SOL    HW1 2845   1.681   1.490   2.309
  888SOL    HW2 2846   1.727   1.564   2.446
  889SOL     OW 2847   1.876   3.102   2.650
  889SOL    HW1 2848   1.959   3.149   2.679
  889SOL    HW2 2849   1.875   3.009   2.688
  890SOL     OW 2850   0.821   1.942   0.881
  890SOL    HW1 2851   0.848   2.016   0.942
  890SOL    HW2 2852   0.898   1.879   0.869
  891SOL     OW 2853   2.997   4.731   4.646
  891SOL    HW1 2854   2.991   4.812   4.704
  891SOL    HW2 2855   3.086   4.729   4.600
  892SOL     OW 2856   2.614   4.094   1.798
  892SOL    HW1 2857   2.709   4.103   1.827
  892SOL    HW2 2858   2.590   4.171   1.739
  893SOL     OW 2859   0.662   0.980   3.561
  893SOL    HW1 2860   0.604   0.899   3.554
  893SOL    HW2 2861   0.756   0.952   3.582
  894SOL     OW 2862   1.372   2.994   1.295
  894SOL    HW1 2863   1.398   3.073   1.350
  894SOL    HW2 2864   1.447   2.927   1.297
  895SOL     OW 2865   2.275   1.180   0.719
  895SOL    HW1 2866   2.220   1.262   0.734
  895SOL    HW2 2867   2.354   1.182   0.780
  896SOL     OW 2868   0.927   0.334   2.872
  896SOL    HW1 2869   0.920   0.402   2.799
  896SOL    HW2 2870   0.950   0.245   2.832
  897SOL     OW 2871   1.996   2.367   0.908
  897SOL    HW1 2872   2.094   2.359   0.891
  897SOL    HW2 2873   1.948   2.302   0.849
  898SOL     OW 2874   0.573   2.453   4.643
  898SOL    HW1 2875   0.479   2.483   4.659
  898SOL    HW2 2876   0.579   2.354   4.658
  899SOL     OW 2877   1.595   0.502   4.340
  899SOL    HW1 2878   1.497   0.519   4.348
  899SOL    HW2 2879   1.615   0.410   4.373
  900SOL     OW 2880   4.011   0.698   4.359
  900SOL    HW1 2881   4.092   0.640   4.359
  900SOL    HW2 2882   3.931   0.642   4.337
  901SOL     OW 2883   3.680   2.178   3.300
  901SOL    HW1 2884   3.721   2.162   3.210
  901SOL    HW2 2885   3.604   2.242   3.291
  902SOL     OW 2886   2.809   1.188   4.571
  902SOL    HW1 2887   2.903   1.161   4.593
  902SOL    HW2 2888   2.749   1.110   4.581
  903SOL     OW 2889   4.849   3.380   3.857
  903SOL    HW1 2890   4.821   3.474   3.837
  903SOL    HW2 2891   4.843   3.365   3.956
  904SOL     OW 2892   4.376   1.066   1.676
  904SOL    HW1 2893   4.343   1.137   1.738
  904SOL    HW2 2894   4.313   0.988   1.678
  905SOL     OW 2895   1.702   2.375   4.285
  905SOL    HW1 2896   1.714   2.321   4.202
  905SOL    HW2 2897   1.752   2.332   4.360
  906SOL     OW 2898   3.045   2.015   1.942
  906SOL    HW1 2899   3.123   1.954   1.932
  906SOL    HW2 2900   2.988   2.009   1.860
  907SOL     OW 2901   4.563   1.978   1.596
  907SOL    HW1 2902   4.650   2.020   1.571
  907SOL    HW2 2903   4.529   2.022   1.679
  908SOL     OW 2904   2.228   1.407   4.676
  908SOL    HW1 2905   2.135   1.370   4.673
  908SOL    HW2 2906   2.293   1.331   4.682
  909SOL     OW 2907   1.107   3.050   4.516
  909SOL    HW1 2908   1.019   3.090   4.489
  909SOL    HW2 2909   1.105   3.031   4.614
  910SOL     OW 2910   3.016   0.309   2.783
  910SOL    HW1 2911   2.921   0.289   2.758
  910SOL    HW2 2912   3.018   0.389   2.843
  911SOL     OW 2913   4.478   4.203   1.369
  911SOL    HW1 2914   4.542   4.201   1.292
  911SOL    HW2 2915   4.397   4.147   1.346
  912SOL     OW 2916   0.815   4.105   0.480
  912SOL    HW1 2917   0.900   4.069   0.441
  912SOL    HW2 2918   0.741   4.041   0.462
  913SOL     OW 2919   2.974   2.034   0.750
  913SOL    HW1 2920   3.068   2.062   0.768
  913SOL    HW2 2921   2.941   2.080   0.667
  914SOL     OW 2922   4.661   4.391   1.118
  914SOL    HW1 2923   4.726   4.466   1.109
  914SOL    HW2 2924   4.570   4.428   1.139
  915SOL     OW 2925   2.712   4.475   2.091
  915SOL    HW1 2926   2.690   4.381   2.117
  915SOL    HW2 2927   2.628   4.525   2.074
  916SOL     OW 2928   3.555   3.346   2.339
  916SOL    HW1 2929   3.474   3.290   2.325
  916SOL    HW2 2930   3.636   3.296   2.308
  917SOL     OW 2931   2.785   3.246   1.524
  917SOL    HW1 2932   2.833   3.332   1.504
  917SOL    HW2 2933   2.846   3.186   1.575
  918SOL     OW 2934   3.255   2.954   2.127
  918SOL    HW1 2935   3.334   2.936   2.068
  918SOL    HW2 2936   3.199   2.872   2.133
  919SOL     OW 2937   3.599   1.844   4.310
  919SOL    HW1 2938   3.566   1.937   4.291
  919SOL    HW2 2939   3.629   1.839   4.405
  920SOL     OW 2940   1.135   3.376   4.155
  920SOL    HW1 2941   1.194   3.349   4.231
  920SOL    HW2 2942   1.072   3.447   4.186
  921SOL     OW 2943   2.677   2.583   1.170
  921SOL    HW1 2944   2.610   2.630   1.112
  921SOL    HW2 2945   2.653   2.486   1.176
  922SOL     OW 2946   0.530   3.296   2.517
  922SOL    HW1 2947   0.566   3.278   2.426
  922SOL    HW2 2948   0.543   3.392   2.539
  923SOL     OW 2949   2.541   4.446   4.817
  923SOL    HW1 2950   2.546   4.427   4.719
  923SOL    HW2 2951   2.468   4.392   4.858
  924SOL     OW 2952   4.089   2.613   3.249
  924SOL    HW1 2953   4.079   2.708   3.220
  924SOL    HW2 2954   4.041   2.554   3.183
  925SOL     OW 2955   2.791   2.328   0.372
  925SOL    HW1 2956   2.802   2.345   0.470
  925SOL    HW2 2957   2.880   2.338   0.328
  926SOL     OW 2958   3.318   1.702   1.758
  926SOL    HW1 2959   3.338   1.678   1.663
  926SOL    HW2 2960   3.394   1.675   1.816
  927SOL     OW 2961   2.391   0.225   3.272
  927SOL    HW1 2962   2.457   0.298   3.290
  927SOL    HW2 2963   2.394   0.200   3.176
  928SOL     OW 2964   0.237   3.125   0.676
  928SOL    HW1 2965   0.161   3.125   0.610
  928SOL    HW2 2966   0.303   3.056   0.650
  929SOL     OW 2967   3.057   3.768   3.885
  929SOL    HW1 2968   3.151   3.802   3.888
  929SOL    HW2 2969   3.015   3.778   3.975
  930SOL     OW 2970   2.681   1.139   3.658
  930SOL    HW1 2971   2.652   1.109   3.567
  930SOL    HW2 2972   2.716   1.061   3.709
  931SOL     OW 2973   4.678   3.718   2.274
  931SOL    HW1 2974   4.753   3.737   2.211
  931SOL    HW2 2975   4.694   3.630   2.319
  932SOL     OW 2976   3.633   3.768   3.154
  932SOL    HW1 2977   3.705   3.712   3.194
  932SOL    HW2 2978   3.658   3.792   3.060
  933SOL     OW 2979   3.758   1.673   0.221
  933SOL    HW1 2980   3.826   1.634   0.159
  933SOL    HW2 2981   3.668   1.639   0.197
  934SOL     OW 2982   2.274   3.310   0.720
  934SOL    HW1 2983   2.370   3.284   0.711
  934SOL    HW2 2984   2.233   3.316   0.629
  935SOL     OW 2985   2.730   4.139   3.888
  935SOL    HW1 2986   2.784   4.213   3.847
  935SOL    HW2 2987   2.714   4.068   3.820
  936SOL     OW 2988   3.418   1.684   1.137
  936SOL    HW1 2989   3.491   1.750   1.117
  936SOL    HW2 2990   3.331   1.732   1.145
  937SOL     OW 2991   0.640   3.582   1.974
  937SOL    HW1 2992   0.625   3.486   1.998
  937SOL    HW2 2993   0.737   3.603   1.985
  938SOL     OW 2994   1.243   1.681   1.222
  938SOL    HW1 2995   1.332   1.709   1.257
  938SOL    HW2 2996   1.218   1.593   1.264
  939SOL     OW 2997   1.843   0.840   3.607
  939SOL    HW1 2998   1.910   0.914   3.617
  939SOL    HW2 2999   1.863   0.769   3.674
  940SOL     OW 3000   0.610   3.225   1.532
  940SOL    HW1 3001   0.702   3.263   1.539
  940SOL    HW2 3002   0.543   3.297   1.552
  941SOL     OW 3003   0.304   2.903   4.280
  941SOL    HW1 3004   0.227   2.940   4.333
  941SOL    HW2 3005   0.268   2.856   4.199
  942SOL     OW 3006   3.819   3.534   4.551
  942SOL    HW1 3007   3.765   3.506   4.631
  942SOL    HW2 3008   3.848   3.452   4.500
  943SOL     OW 3009   2.681   4.438   2.552
  943SOL    HW1 3010   2.721   4.520   2.511
  943SOL    HW2 3011   2.729   4.357   2.517
  944SOL     OW 3012   4.693   2.067   1.182
  944SOL    HW1 3013   4.675   1.969   1.187
  944SOL    HW2 3014   4.608   2.117   1.198
  945SOL     OW 3015   0.950   2.097   4.075
  945SOL    HW1 3016   1.044   2.064   4.080
  945SOL    HW2 3017   0.899   2.063   4.154
  946SOL     OW 3018   0.222   0.594   3.842
  946SOL    HW1 3019   0.275   0.509   3.848
  946SOL    HW2 3020   0.266   0.664   3.898
  947SOL     OW 3021   1.829   1.630   0.932
  947SOL    HW1 3022   1.912   1.658   0.981
  947SOL    HW2 3023   1.766   1.587   0.996
  948SOL     OW 3024   3.177   2.675   2.121
  948SOL    HW1 3025   3.226   2.633   2.045
  948SOL    HW2 3026   3.084   2.638   2.125
  949SOL     OW 3027   4.421   2.493   3.925
  949SOL    HW1 3028   4.496   2.492   3.859
  949SOL    HW2 3029   4.363   2.413   3.910
  950SOL     OW 3030   3.398   4.426   3.638
  950SOL    HW1 3031   3.493   4.457   3.634
  950SOL    HW2 3032   3.396   4.326   3.644
  951SOL     OW 3033   4.482   2.627   4.665
  951SOL    HW1 3034   4.509   2.634   4.569
  951SOL    HW2 3035   4.530   2.697   4.718
  952SOL     OW 3036   1.699   4.472   0.627
  952SOL    HW1 3037   1.619   4.527   0.651
  952SOL    HW2 3038   1.777   4.504   0.681
  953SOL     OW 3039   0.990   3.471   2.565
  953SOL    HW1 3040   0.949   3.420   2.641
  953SOL    HW2 3041   0.957   3.433   2.479
  954SOL     OW 3042   1.099   3.674   3.453
  954SOL    HW1 3043   1.000   3.666   3.443
  954SOL    HW2 3044   1.134   3.593   3.501
  955SOL     OW 3045   1.933   2.642   1.827
  955SOL    HW1 3046   1.858   2.693   1.868
  955SOL    HW2 3047   1.952   2.561   1.883
  956SOL     OW 3048   1.343   1.808   3.391
  956SOL    HW1 3049   1.292   1.855   3.464
  956SOL    HW2 3050   1.336   1.709   3.405
  957SOL     OW 3051   4.782   2.508   3.198
  957SOL    HW1 3052   4.734   2.423   3.219
  957SOL    HW2 3053   4.858   2.519   3.261
  958SOL     OW 3054   2.400   2.572   1.255
  958SOL    HW1 3055   2.399   2.482   1.211
  958SOL    HW2 3056   2.335   2.632   1.209
  959SOL     OW 3057   2.484   1.538   4.374
  959SOL    HW1 3058   2.570   1.548   4.423
  959SOL    HW2 3059   2.501   1.494   4.286
  960SOL     OW 3060   1.397   3.250   3.347
  960SOL    HW1 3061   1.441   3.334   3.319
  960SOL    HW2 3062   1.340   3.216   3.272
  961SOL     OW 3063   2.362   3.068   0.537
  961SOL    HW1 3064   2.397   3.018   0.616
  961SOL    HW2 3065   2.428   3.137   0.508
  962SOL     OW 3066   3.271   0.659   4.337
  962SOL    HW1 3067   3.220   0.621   4.414
  962SOL    HW2 3068   3.314   0.584   4.287
  963SOL     OW 3069   1.338   1.082   3.723
  963SOL    HW1 3070   1.313   1.040   3.636
  963SOL    HW2 3071   1.349   1.181   3.710
  964SOL     OW 3072   1.443   0.848   4.827
  964SOL    HW1 3073   1.393   0.828   4.743
  964SOL    HW2 3074   1.538   0.868   4.805
  965SOL     OW 3075   0.474   1.100   0.705
  965SOL    HW1 3076   0.514   1.016   0.667
  965SOL    HW2 3077   0.526   1.179   0.671
  966SOL     OW 3078   4.668   1.419   4.804
  966SOL    HW1 3079   4.641   1.437   4.709
  966SOL    HW2 3080   4.665   1.320   4.820
  967SOL     OW 3081   0.571   1.795   0.758
  967SOL    HW1 3082   0.500   1.863   0.774
  967SOL    HW2 3083   0.658   1.828   0.793
  968SOL     OW 3084   0.472   4.683   1.384
  968SOL    HW1 3085   0.512   4.594   1.360
  968SOL    HW2 3086   0.393   4.668   1.444
  969SOL     OW 3087   2.266   0.704   4.286
  969SOL    HW1 3088   2.214   0.624   4.315
  969SOL    HW2 3089   2.286   0.761   4.366
  970SOL     OW 3090   4.524   2.030   4.175
  970SOL    HW1 3091   4.439   2.044   4.123
  970SOL    HW2 3092   4.536   1.932   4.191
  971SOL     OW 3093   3.399   3.865   2.482
  971SOL    HW1 3094   3.379   3.915   2.398
  971SOL    HW2 3095   3.316   3.820   2.514
  972SOL     OW 3096   4.678   1.975   0.281
  972SOL    HW1 3097   4.590   1.981   0.328
  972SOL    HW2 3098   4.752   1.989   0.348
  973SOL     OW 3099   1.348   2.055   4.440
  973SOL    HW1 3100   1.388   1.997   4.511
  973SOL    HW2 3101   1.379   2.149   4.453
  974SOL     OW 3102   1.900   4.544   3.379
  974SOL    HW1 3103   1.946   4.607   3.316
  974SOL    HW2 3104   1.801   4.548   3.363
  975SOL     OW 3105   0.702   3.992   3.486
  975SOL    HW1 3106   0.726   4.072   3.431
  975SOL    HW2 3107   0.774   3.977   3.554
  976SOL     OW 3108   3.876   3.717   2.415
  976SOL    HW1 3109   3.963   3.732   2.368
  976SOL    HW2 3110   3.819   3.656   2.360
  977SOL     OW 3111   4.445   1.226   2.977
  977SOL    HW1 3112   4.409   1.312   3.012
  977SOL    HW2 3113   4.492   1.178   3.051
  978SOL     OW 3114   1.859   0.588   0.926
  978SOL    HW1 3115   1.939   0.619   0.977
  978SOL    HW2 3116   1.788   0.658   0.931
  979SOL     OW 3117   3.986   3.522   2.109
  979SOL    HW1 3118   3.890   3.535   2.083
  979SOL    HW2 3119   4.035   3.478   2.034
  980SOL     OW 3120   3.386   0.170   1.940
  980SOL    HW1 3121   3.409   0.257   1.896
  980SOL    HW2 3122   3.374   0.186   2.038
  981SOL     OW 3123   2.956   3.092   1.691
  981SOL    HW1 3124   3.034   3.068   1.632
  981SOL    HW2 3125   2.938   3.015   1.753
  982SOL     OW 3126   2.911   4.270   2.724
  982SOL    HW1 3127   2.876   4.364   2.725
  982SOL    HW2 3128   3.005   4.270   2.756
  983SOL     OW 3129   3.346   0.203   3.090
  983SOL    HW1 3130   3.349   0.154   3.177
  983SOL    HW2 3131   3.254   0.196   3.052
  984SOL     OW 3132   3.719   3.425   3.307
  984SOL    HW1 3133   3.697   3.503   3.365
  984SOL    HW2 3134   3.642   3.361   3.307
  985SOL     OW 3135   4.288   3.291   2.890
  985SOL    HW1 3136   4.323   3.333   2.974
  985SOL    HW2 3137   4.199   3.250   2.908
  986SOL     OW 3138   1.906   4.693   3.671
  986SOL    HW1 3139   1.847   4.619   3.637
  986SOL    HW2 3140   1.884   4.777   3.621
  987SOL     OW 3141   3.223   4.220   1.774
  987SOL    HW1 3142   3.245   4.153   1.845
  987SOL    HW2 3143   3.271   4.197   1.690
  988SOL     OW 3144   2.927   1.871   1.110
  988SOL    HW1 3145   2.848   1.848   1.052
  988SOL    HW2 3146   2.946   1.969   1.099
  989SOL     OW 3147   0.943   3.550   2.986
  989SOL    HW1 3148   1.004   3.486   2.938
  989SOL    HW2 3149   0.876   3.586   2.921
  990SOL     OW 3150   0.945   3.382   3.246
  990SOL    HW1 3151   0.964   3.298   3.196
  990SOL    HW2 3152   0.890   3.443   3.188
  991SOL     OW 3153   1.365   3.502   3.187
  991SOL    HW1 3154   1.301   3.428   3.172
  991SOL    HW2 3155   1.443   3.492   3.124
  992SOL     OW 3156   4.554   3.370   4.291
  992SOL    HW1 3157   4.526   3.275   4.282
  992SOL    HW2 3158   4.632   3.388   4.230
  993SOL     OW 3159   4.659   2.597   2.234
  993SOL    HW1 3160   4.680   2.625   2.327
  993SOL    HW2 3161   4.666   2.498   2.226
  994SOL     OW 3162   4.075   0.690   2.085
  994SOL    HW1 3163   4.119   0.620   2.028
  994SOL    HW2 3164   3.984   0.659   2.112
  995SOL     OW 3165   1.684   3.785   0.812
  995SOL    HW1 3166   1.769   3.758   0.857
  995SOL    HW2 3167   1.606   3.753   0.866
  996SOL     OW 3168   2.480   0.854   2.055
  996SOL    HW1 3169   2.473   0.914   1.976
  996SOL    HW2 3170   2.450   0.904   2.137
  997SOL     OW 3171   2.728   1.126   2.244
  997SOL    HW1 3172   2.812   1.071   2.244
  997SOL    HW2 3173   2.746   1.214   2.200
  998SOL     OW 3174   0.494   4.787   2.098
  998SOL    HW1 3175   0.404   4.823   2.072
  998SOL    HW2 3176   0.505   4.695   2.061
  999SOL     OW 3177   4.506   0.568   4.233
  999SOL    HW1 3178   4.549   0.631   4.297
  999SOL    HW2 3179   4.414   0.600   4.212
 1000SOL     OW 3180   4.392   2.871   0.902
 1000SOL    HW1 3181   4.375   2.780   0.864
 1000SOL    HW2 3182   4.316   2.931   0.878
 1001SOL     OW 3183   2.357   0.620   1.346
 1001SOL    HW1 3184   2.341   0.710   1.305
 1001SOL    HW2 3185   2.359   0.551   1.274
 1002SOL     OW 3186   1.589   2.906   4.589
 1002SOL    HW1 3187   1.661   2.855   4.542
 1002SOL    HW2 3188   1.500   2.868   4.564
 1003SOL     OW 3189   3.402   1.395   0.490
 1003SOL    HW1 3190   3.379   1.307   0.450
 1003SOL    HW2 3191   3.501   1.399   0.505
 1004SOL     OW 3192   2.626   0.449   3.869
 1004SOL    HW1 3193   2.609   0.504   3.951
 1004SOL    HW2 3194   2.708   0.394   3.883
 1005SOL     OW 3195   2.430   4.536   0.923
 1005SOL    HW1 3196   2.459   4.445   0.954
 1005SOL    HW2 3197   2.474   4.556   0.836
 1006SOL     OW 3198   1.465   1.100   4.639
 1006SOL    HW1 3199   1.460   1.080   4.736
 1006SOL    HW2 3200   1.519   1.029   4.593
 1007SOL     OW 3201   2.549   2.105   4.724
 1007SOL    HW1 3202   2.587   2.191   4.757
 1007SOL    HW2 3203   2.621   2.036   4.722
 1008SOL     OW 3204   1.283   2.715   1.306
 1008SOL    HW1 3205   1.247   2.802   1.272
 1008SOL    HW2 3206   1.207   2.658   1.336
 1009SOL     OW 3207   3.622   2.064   1.323
 1009SOL    HW1 3208   3.687   1.990   1.303
 1009SOL    HW2 3209   3.532   2.039   1.286
 1010SOL     OW 3210   2.954   1.808   4.745
 1010SOL    HW1 3211   3.045   1.773   4.724
 1010SOL    HW2 3212   2.958   1.859   4.831
 1011SOL     OW 3213   4.757   3.619   1.537
 1011SOL    HW1 3214   4.814   3.550   1.582
 1011SOL    HW2 3215   4.816   3.692   1.503
 1012SOL     OW 3216   0.625   0.224   1.578
 1012SOL    HW1 3217   0.714   0.271   1.572
 1012SOL    HW2 3218   0.586   0.239   1.669
 1013SOL     OW 3219   0.546   3.798   2.392
 1013SOL    HW1 3220   0.488   3.861   2.340
 1013SOL    HW2 3221   0.621   3.850   2.434
 1014SOL     OW 3222   0.671   1.199   1.510
 1014SOL    HW1 3223   0.710   1.188   1.602
 1014SOL    HW2 3224   0.571   1.196   1.517
 1015SOL     OW 3225   2.711   4.580   3.483
 1015SOL    HW1 3226   2.808   4.559   3.467
 1015SOL    HW2 3227   2.658   4.496   3.472
 1016SOL     OW 3228   3.652   2.596   3.488
 1016SOL    HW1 3229   3.558   2.617   3.513
 1016SOL    HW2 3230   3.667   2.497   3.493
 1017SOL     OW 3231   3.646   2.153   4.747
 1017SOL    HW1 3232   3.683   2.190   4.832
 1017SOL    HW2 3233   3.547   2.158   4.749
 1018SOL     OW 3234   0.407   0.625   0.369
 1018SOL    HW1 3235   0.322   0.597   0.323
 1018SOL    HW2 3236   0.468   0.547   0.376
 1019SOL     OW 3237   4.288   4.753   3.203
 1019SOL    HW1 3238   4.348   4.832   3.206
 1019SOL    HW2 3239   4.242   4.743   3.292
 1020SOL     OW 3240   1.853   0.448   3.946
 1020SOL    HW1 3241   1.758   0.445   3.915
 1020SOL    HW2 3242   1.897   0.360   3.927
 1021SOL     OW 3243   2.394   3.063   4.497
 1021SOL    HW1 3244   2.305   3.052   4.540
 1021SOL    HW2 3245   2.465   3.031   4.560
 1022SOL     OW 3246   4.083   0.388   2.109
 1022SOL    HW1 3247   3.989   0.359   2.090
 1022SOL    HW2 3248   4.091   0.416   2.204
 1023SOL     OW 3249   2.815   4.289   3.500
 1023SOL    HW1 3250   2.732   4.277   3.555
 1023SOL    HW2 3251   2.877   4.352   3.547
 1024SOL     OW 3252   3.559   2.351   3.685
 1024SOL    HW1 3253   3.641   2.368   3.739
 1024SOL    HW2 3254   3.481   2.398   3.727
 1025SOL     OW 3255   2.368   3.600   3.984
 1025SOL    HW1 3256   2.466   3.613   3.966
 1025SOL    HW2 3257   2.338   3.513   3.944
 1026SOL     OW 3258   4.102   4.464   3.567
 1026SOL    HW1 3259   4.037   4.388   3.570
 1026SOL    HW2 3260   4.054   4.547   3.537
 1027SOL     OW 3261   3.818   3.763   1.300
 1027SOL    HW1 3262   3.797   3.682   1.355
 1027SOL    HW2 3263   3.888   3.817   1.346
 1028SOL     OW 3264   0.775   0.244   0.799
 1028SOL    HW1 3265   0.833   0.166   0.825
 1028SOL    HW2 3266   0.830   0.328   0.802
 1029SOL     OW 3267   1.188   1.289   3.884
 1029SOL    HW1 3268   1.098   1.333   3.871
 1029SOL    HW2 3269   1.178   1.191   3.871
 1030SOL     OW 3270   1.491   1.779   4.516
 1030SOL    HW1 3271   1.408   1.727   4.497
 1030SOL    HW2 3272   1.571   1.720   4.500
 1031SOL     OW 3273   1.290   4.012   2.724
 1031SOL    HW1 3274   1.215   4.077   2.710
 1031SOL    HW2 3275   1.251   3.921   2.737
 1032SOL     OW 3276   4.131   3.639   0.972
 1032SOL    HW1 3277   4.042   3.679   0.989
 1032SOL    HW2 3278   4.200   3.711   0.965
 1033SOL     OW 3279   2.193   4.781   4.747
 1033SOL    HW1 3280   2.248   4.804   4.828
 1033SOL    HW2 3281   2.211   4.848   4.675
 1034SOL     OW 3282   0.717   2.228   4.392
 1034SOL    HW1 3283   0.666   2.313   4.407
 1034SOL    HW2 3284   0.802   2.249   4.343
 1035SOL     OW 3285   0.776   0.430   4.006
 1035SOL    HW1 3286   0.738   0.357   4.062
 1035SOL    HW2 3287   0.755   0.518   4.048
 1036SOL     OW 3288   0.807   3.780   2.222
 1036SOL    HW1 3289   0.818   3.879   2.216
 1036SOL    HW2 3290   0.711   3.758   2.241
 1037SOL     OW 3291   4.196   4.502   4.445
 1037SOL    HW1 3292   4.225   4.506   4.541
 1037SOL    HW2 3293   4.172   4.594   4.414
 1038SOL     OW 3294   4.742   2.759   4.675
 1038SOL    HW1 3295   4.826   2.807   4.700
 1038SOL    HW2 3296   4.748   2.665   4.708
 1039SOL     OW 3297   3.593   2.227   0.965
 1039SOL    HW1 3298   3.592   2.213   1.064
 1039SOL    HW2 3299   3.630   2.318   0.945
 1040SOL     OW 3300   1.289   4.286   3.977
 1040SOL    HW1 3301   1.208   4.340   3.999
 1040SOL    HW2 3302   1.267   4.223   3.902
 1041SOL     OW 3303   3.814   3.822   4.389
 1041SOL    HW1 3304   3.732   3.784   4.346
 1041SOL    HW2 3305   3.805   3.921   4.396
 1042SOL     OW 3306   1.290   4.199   2.964
 1042SOL    HW1 3307   1.212   4.141   2.985
 1042SOL    HW2 3308   1.325   4.175   2.873
 1043SOL     OW 3309   4.314   2.571   0.845
 1043SOL    HW1 3310   4.382   2.530   0.784
 1043SOL    HW2 3311   4.315   2.523   0.933
 1044SOL     OW 3312   2.605   4.644   0.215
 1044SOL    HW1 3313   2.658   4.669   0.134
 1044SOL    HW2 3314   2.518   4.605   0.188
 1045SOL     OW 3315   0.394   3.811   2.855
 1045SOL    HW1 3316   0.304   3.833   2.892
 1045SOL    HW2 3317   0.464   3.855   2.911
 1046SOL     OW 3318   1.233   4.233   4.498
 1046SOL    HW1 3319   1.291   4.291   4.440
 1046SOL    HW2 3320   1.231   4.272   4.591
 1047SOL     OW 3321   2.755   0.383   0.353
 1047SOL    HW1 3322   2.673   0.405   0.300
 1047SOL    HW2 3323   2.824   0.344   0.293
 1048SOL     OW 3324   4.546   1.702   4.079
 1048SOL    HW1 3325   4.619   1.746   4.028
 1048SOL    HW2 3326   4.576   1.685   4.172
 1049SOL     OW 3327   4.611   0.240   0.710
 1049SOL    HW1 3328   4.563   0.328   0.717
 1049SOL    HW2 3329   4.578   0.191   0.629
 1050SOL     OW 3330   1.610   2.280   3.720
 1050SOL    HW1 3331   1.667   2.241   3.647
 1050SOL    HW2 3332   1.664   2.287   3.804
 1051SOL     OW 3333   2.751   1.741   3.906
 1051SOL    HW1 3334   2.653   1.720   3.906
 1051SOL    HW2 3335   2.800   1.670   3.856
 1052SOL     OW 3336   3.124   0.238   4.365
 1052SOL    HW1 3337   3.222   0.227   4.380
 1052SOL    HW2 3338   3.078   0.244   4.454
 1053SOL     OW 3339   0.279   3.013   0.416
 1053SOL    HW1 3340   0.339   3.071   0.360
 1053SOL    HW2 3341   0.291   2.918   0.388
 1054SOL     OW 3342   4.582   4.750   1.597
 1054SOL    HW1 3343   4.629   4.662   1.599
 1054SOL    HW2 3344   4.484   4.735   1.585
 1055SOL     OW 3345   3.542   3.384   2.643
 1055SOL    HW1 3346   3.582   3.301   2.603
 1055SOL    HW2 3347   3.465   3.413   2.587
 1056SOL     OW 3348   1.031   1.883   4.313
 1056SOL    HW1 3349   1.080   1.866   4.228
 1056SOL    HW2 3350   1.097   1.902   4.386
 1057SOL     OW 3351   1.651   3.026   2.448
 1057SOL    HW1 3352   1.731   3.075   2.482
 1057SOL    HW2 3353   1.644   3.039   2.349
 1058SOL     OW 3354   4.246   0.796   0.884
 1058SOL    HW1 3355   4.288   0.859   0.950
 1058SOL    HW2 3356   4.189   0.731   0.934
 1059SOL     OW 3357   2.511   2.051   3.578
 1059SOL    HW1 3358   2.568   2.033   3.498
 1059SOL    HW2 3359   2.560   2.113   3.640
 1060SOL     OW 3360   0.802   0.853   0.281
 1060SOL    HW1 3361   0.780   0.813   0.370
 1060SOL    HW2 3362   0.833   0.947   0.294
 1061SOL     OW 3363   4.567   2.280   2.072
 1061SOL    HW1 3364   4.663   2.292   2.095
 1061SOL    HW2 3365   4.522   2.370   2.072
 1062SOL     OW 3366   1.667   2.102   4.037
 1062SOL    HW1 3367   1.619   2.015   4.047
 1062SOL    HW2 3368   1.763   2.084   4.017
 1063SOL     OW 3369   4.587   3.221   0.775
 1063SOL    HW1 3370   4.618   3.244   0.867
 1063SOL    HW2 3371   4.487   3.215   0.774
 1064SOL     OW 3372   0.224   3.194   4.625
 1064SOL    HW1 3373   0.248   3.253   4.702
 1064SOL    HW2 3374   0.256   3.236   4.541
 1065SOL     OW 3375   3.457   1.891   4.658
 1065SOL    HW1 3376   3.545   1.919   4.696
 1065SOL    HW2 3377   3.444   1.935   4.569
 1066SOL     OW 3378   1.980   0.612   1.622
 1066SOL    HW1 3379   1.971   0.698   1.571
 1066SOL    HW2 3380   1.980   0.632   1.720
 1067SOL     OW 3381   4.722   1.695   4.820
 1067SOL    HW1 3382   4.731   1.595   4.827
 1067SOL    HW2 3383   4.628   1.717   4.796
 1068SOL     OW 3384   3.392   4.209   0.314
 1068SOL    HW1 3385   3.488   4.196   0.339
 1068SOL    HW2 3386   3.337   4.137   0.357
 1069SOL     OW 3387   2.271   2.296   1.129
 1069SOL    HW1 3388   2.280   2.279   1.227
 1069SOL    HW2 3389   2.175   2.286   1.102
 1070SOL     OW 3390   2.795   2.884   3.597
 1070SOL    HW1 3391   2.737   2.912   3.521
 1070SOL    HW2 3392   2.739   2.839   3.666
 1071SOL     OW 3393   1.998   4.738   2.966
 1071SOL    HW1 3394   2.022   4.830   2.996
 1071SOL    HW2 3395   2.012   4.731   2.867
 1072SOL     OW 3396   0.630   0.833   1.987
 1072SOL    HW1 3397   0.537   0.863   1.968
 1072SOL    HW2 3398   0.672   0.895   2.054
 1073SOL     OW 3399   0.523   4.038   2.572
 1073SOL    HW1 3400   0.459   4.111   2.596
 1073SOL    HW2 3401   0.478   3.949   2.585
 1074SOL     OW 3402   1.523   4.039   0.775
 1074SOL    HW1 3403   1.605   4.001   0.817
 1074SOL    HW2 3404   1.542   4.063   0.680
 1075SOL     OW 3405   4.266   0.753   1.380
 1075SOL    HW1 3406   4.315   0.730   1.295
 1075SOL    HW2 3407   4.325   0.733   1.458
 1076SOL     OW 3408   2.559   3.947   4.524
 1076SOL    HW1 3409   2.614   3.940   4.607
 1076SOL    HW2 3410   2.544   3.855   4.488
 1077SOL     OW 3411   2.168   1.040   2.173
 1077SOL    HW1 3412   2.212   1.114   2.224
 1077SOL    HW2 3413   2.079   1.071   2.141
 1078SOL     OW 3414   1.620   2.482   0.697
 1078SOL    HW1 3415   1.594   2.507   0.790
 1078SOL    HW2 3416   1.713   2.513   0.679
 1079SOL     OW 3417   0.817   3.731   0.764
 1079SOL    HW1 3418   0.795   3.731   0.861
 1079SOL    HW2 3419   0.862   3.818   0.740
 1080SOL     OW 3420   1.459   2.310   3.067
 1080SOL    HW1 3421   1.369   2.314   3.024
 1080SOL    HW2 3422   1.501   2.400   3.065
 1081SOL     OW 3423   1.907   3.074   0.965
 1081SOL    HW1 3424   1.942   3.167   0.960
 1081SOL    HW2 3425   1.953   3.018   0.896
 1082SOL     OW 3426   0.875   2.427   1.998
 1082SOL    HW1 3427   0.932   2.493   1.949
 1082SOL    HW2 3428   0.932   2.377   2.063
 1083SOL     OW 3429   2.689   4.344   3.153
 1083SOL    HW1 3430   2.744   4.428   3.154
 1083SOL    HW2 3431   2.619   4.350   3.223
 1084SOL     OW 3432   0.890   2.354   1.724
 1084SOL    HW1 3433   0.869   2.330   1.819
 1084SOL    HW2 3434   0.833   2.298   1.663
 1085SOL     OW 3435   3.630   3.020   2.549
 1085SOL    HW1 3436   3.593   2.939   2.503
 1085SOL    HW2 3437   3.683   3.074   2.484
 1086SOL     OW 3438   0.260   4.637   1.060
 1086SOL    HW1 3439   0.192   4.569   1.088
 1086SOL    HW2 3440   0.249   4.657   0.963
 1087SOL     OW 3441   1.129   3.696   4.780
 1087SOL    HW1 3442   1.125   3.780   4.833
 1087SOL    HW2 3443   1.053   3.636   4.808
 1088SOL     OW 3444   2.996   4.057   3.988
 1088SOL    HW1 3445   3.005   4.076   3.890
 1088SOL    HW2 3446   2.904   4.021   4.005
 1089SOL     OW 3447   2.221   0.437   1.795
 1089SOL    HW1 3448   2.192   0.433   1.699
 1089SOL    HW2 3449   2.266   0.524   1.812
 1090SOL     OW 3450   1.414   1.387   4.082
 1090SOL    HW1 3451   1.360   1.322   4.134
 1090SOL    HW2 3452   1.380   1.390   3.988
 1091SOL     OW 3453   2.989   1.009   3.634
 1091SOL    HW1 3454   3.072   0.954   3.647
 1091SOL    HW2 3455   2.974   1.065   3.716
 1092SOL     OW 3456   1.910   1.229   3.938
 1092SOL    HW1 3457   1.892   1.131   3.948
 1092SOL    HW2 3458   1.890   1.275   4.024
 1093SOL     OW 3459   4.204   1.369   1.740
 1093SOL    HW1 3460   4.234   1.339   1.650
 1093SOL    HW2 3461   4.267   1.439   1.774
 1094SOL     OW 3462   4.117   2.738   3.508
 1094SOL    HW1 3463   4.168   2.679   3.445
 1094SOL    HW2 3464   4.047   2.788   3.457
 1095SOL     OW 3465   2.130   2.551   4.366
 1095SOL    HW1 3466   2.191   2.625   4.393
 1095SOL    HW2 3467   2.118   2.552   4.266
 1096SOL     OW 3468   3.751   2.499   3.207
 1096SOL    HW1 3469   3.745   2.558   3.288
 1096SOL    HW2 3470   3.811   2.541   3.139
 1097SOL     OW 3471   0.730   3.356   4.261
 1097SOL    HW1 3472   0.703   3.448   4.231
 1097SOL    HW2 3473   0.792   3.316   4.193
 1098SOL     OW 3474   0.304   2.936   1.232
 1098SOL    HW1 3475   0.400   2.925   1.206
 1098SOL    HW2 3476   0.297   3.004   1.305
 1099SOL     OW 3477   2.841   2.818   2.695
 1099SOL    HW1 3478   2.901   2.850   2.768
 1099SOL    HW2 3479   2.758   2.873   2.694
 1100SOL     OW 3480   3.186   3.769   1.870
 1100SOL    HW1 3481   3.210   3.723   1.955
 1100SOL    HW2 3482   3.269   3.787   1.818
 1101SOL     OW 3483   0.258   3.415   0.669
 1101SOL    HW1 3484   0.167   3.379   0.687
 1101SOL    HW2 3485   0.321   3.340   0.652
 1102SOL     OW 3486   1.306   0.580   0.594
 1102SOL    HW1 3487   1.217   0.622   0.611
 1102SOL    HW2 3488   1.312   0.555   0.498
 1103SOL     OW 3489   1.041   1.046   3.676
 1103SOL    HW1 3490   0.985   1.077   3.752
 1103SOL    HW2 3491   1.080   1.125   3.629
 1104SOL     OW 3492   3.577   2.154   4.144
 1104SOL    HW1 3493   3.545   2.249   4.145
 1104SOL    HW2 3494   3.677   2.152   4.148
 1105SOL     OW 3495   0.614   3.856   0.230
 1105SOL    HW1 3496   0.686   3.869   0.297
 1105SOL    HW2 3497   0.621   3.927   0.160
 1106SOL     OW 3498   0.627   4.687   3.039
 1106SOL    HW1 3499   0.533   4.718   3.053
 1106SOL    HW2 3500   0.685   4.765   3.016
 1107SOL     OW 3501   3.583   0.333   2.478
 1107SOL    HW1 3502   3.492   0.355   2.514
 1107SOL    HW2 3503   3.610   0.405   2.415
 1108SOL     OW 3504   4.385   0.749   4.052
 1108SOL    HW1 3505   4.443   0.745   3.971
 1108SOL    HW2 3506   4.388   0.842   4.090
 1109SOL     OW 3507   2.291   2.290   1.404
 1109SOL    HW1 3508   2.340   2.209   1.436
 1109SOL    HW2 3509   2.237   2.328   1.479
 1110SOL     OW 3510   1.536   2.951   0.402
 1110SOL    HW1 3511   1.635   2.948   0.409
 1110SOL    HW2 3512   1.498   2.989   0.487
 1111SOL     OW 3513   0.973   1.817   3.524
 1111SOL    HW1 3514   0.882   1.785   3.498
 1111SOL    HW2 3515   0.973   1.842   3.620
 1112SOL     OW 3516   1.725   1.076   2.167
 1112SOL    HW1 3517   1.780   1.159   2.163
 1112SOL    HW2 3518   1.783   1.000   2.196
 1113SOL     OW 3519   2.971   1.192   0.727
 1113SOL    HW1 3520   3.067   1.180   0.751
 1113SOL    HW2 3521   2.919   1.212   0.810
 1114SOL     OW 3522   3.296   4.543   3.069
 1114SOL    HW1 3523   3.358   4.620   3.081
 1114SOL    HW2 3524   3.349   4.458   3.062
 1115SOL     OW 3525   4.199   4.207   4.139
 1115SOL    HW1 3526   4.240   4.295   4.162
 1115SOL    HW2 3527   4.268   4.147   4.098
 1116SOL     OW 3528   1.654   2.770   3.445
 1116SOL    HW1 3529   1.655   2.864   3.480
 1116SOL    HW2 3530   1.631   2.708   3.520
 1117SOL     OW 3531   4.033   2.233   2.138
 1117SOL    HW1 3532   4.045   2.329   2.165
 1117SOL    HW2 3533   4.121   2.196   2.108
 1118SOL     OW 3534   3.405   0.863   0.820
 1118SOL    HW1 3535   3.347   0.788   0.852
 1118SOL    HW2 3536   3.468   0.828   0.751
 1119SOL     OW 3537   2.293   0.172   1.521
 1119SOL    HW1 3538   2.342   0.251   1.483
 1119SOL    HW2 3539   2.203   0.165   1.476
 1120SOL     OW 3540   4.403   2.350   4.691
 1120SOL    HW1 3541   4.492   2.387   4.719
 1120SOL    HW2 3542   4.347   2.422   4.652
 1121SOL     OW 3543   3.886   2.686   1.436
 1121SOL    HW1 3544   3.847   2.595   1.420
 1121SOL    HW2 3545   3.825   2.755   1.398
 1122SOL     OW 3546   0.376   1.137   3.883
 1122SOL    HW1 3547   0.390   1.060   3.820
 1122SOL    HW2 3548   0.360   1.220   3.829
 1123SOL     OW 3549   4.576   0.961   2.243
 1123SOL    HW1 3550   4.584   1.059   2.260
 1123SOL    HW2 3551   4.609   0.911   2.323
 1124SOL     OW 3552   1.429   1.718   2.522
 1124SOL    HW1 3553   1.360   1.668   2.575
 1124SOL    HW2 3554   1.400   1.721   2.426
 1125SOL     OW 3555   2.666   3.863   1.641
 1125SOL    HW1 3556   2.619   3.901   1.722
 1125SOL    HW2 3557   2.753   3.825   1.670
 1126SOL     OW 3558   3.058   0.444   1.043
 1126SOL    HW1 3559   2.994   0.369   1.034
 1126SOL    HW2 3560   3.116   0.429   1.124
 1127SOL     OW 3561   0.830   0.861   1.027
 1127SOL    HW1 3562   0.919   0.818   1.010
 1127SOL    HW2 3563   0.836   0.914   1.112
 1128SOL     OW 3564   3.471   2.891   1.966
 1128SOL    HW1 3565   3.522   2.805   1.973
 1128SOL    HW2 3566   3.528   2.959   1.920
 1129SOL     OW 3567   2.150   1.659   2.914
 1129SOL    HW1 3568   2.168   1.560   2.917
 1129SOL    HW2 3569   2.063   1.676   2.869
 1130SOL     OW 3570   1.055   4.016   4.502
 1130SOL    HW1 3571   1.091   4.107   4.482
 1130SOL    HW2 3572   1.068   3.996   4.599
 1131SOL     OW 3573   2.957   1.113   3.034
 1131SOL    HW1 3574   3.031   1.119   3.101
 1131SOL    HW2 3575   2.995   1.119   2.942
 1132SOL     OW 3576   2.230   2.444   3.096
 1132SOL    HW1 3577   2.238   2.355   3.142
 1132SOL    HW2 3578   2.143   2.448   3.048
 1133SOL     OW 3579   3.797   3.036   0.699
 1133SOL    HW1 3580   3.826   2.969   0.767
 1133SOL    HW2 3581   3.745   3.109   0.745
 1134SOL     OW 3582   4.520   1.365   2.341
 1134SOL    HW1 3583   4.430   1.404   2.323
 1134SOL    HW2 3584   4.590   1.423   2.300
 1135SOL     OW 3585   4.779   2.757   0.808
 1135SOL    HW1 3586   4.832   2.708   0.739
 1135SOL    HW2 3587   4.806   2.853   0.810
 1136SOL     OW 3588   2.892   0.694   3.510
 1136SOL    HW1 3589   2.948   0.742   3.578
 1136SOL    HW2 3590   2.800   0.734   3.509
 1137SOL     OW 3591   2.773   1.665   2.354
 1137SOL    HW1 3592   2.749   1.705   2.266
 1137SOL    HW2 3593   2.734   1.722   2.427
 1138SOL     OW 3594   1.060   4.178   1.356
 1138SOL    HW1 3595   1.006   4.137   1.282
 1138SOL    HW2 3596   1.009   4.171   1.441
 1139SOL     OW 3597   1.926   2.998   2.211
 1139SOL    HW1 3598   1.977   3.030   2.291
 1139SOL    HW2 3599   1.988   2.998   2.132
 1140SOL     OW 3600   2.167   1.597   3.721
 1140SOL    HW1 3601   2.267   1.601   3.718
 1140SOL    HW2 3602   2.129   1.649   3.646
 1141SOL     OW 3603   4.367   4.122   3.129
 1141SOL    HW1 3604   4.323   4.040   3.094
 1141SOL    HW2 3605   4.452   4.138   3.079
 1142SOL     OW 3606   1.435   3.468   1.621
 1142SOL    HW1 3607   1.450   3.370   1.628
 1142SOL    HW2 3608   1.523   3.514   1.610
 1143SOL     OW 3609   0.438   2.417   2.369
 1143SOL    HW1 3610   0.475   2.462   2.450
 1143SOL    HW2 3611   0.470   2.465   2.287
 1144SOL     OW 3612   1.563   4.368   3.082
 1144SOL    HW1 3613   1.596   4.461   3.063
 1144SOL    HW2 3614   1.634   4.302   3.059
 1145SOL     OW 3615   3.958   2.154   4.113
 1145SOL    HW1 3616   4.029   2.152   4.184
 1145SOL    HW2 3617   3.996   2.120   4.027
 1146SOL     OW 3618   1.704   4.347   3.500
 1146SOL    HW1 3619   1.632   4.374   3.564
 1146SOL    HW2 3620   1.732   4.253   3.521
 1147SOL     OW 3621   4.215   4.606   1.357
 1147SOL    HW1 3622   4.296   4.617   1.413
 1147SOL    HW2 3623   4.235   4.542   1.282
 1148SOL     OW 3624   2.861   1.433   2.988
 1148SOL    HW1 3625   2.772   1.477   2.994
 1148SOL    HW2 3626   2.856   1.344   3.034
 1149SOL     OW 3627   2.306   0.771   1.627
 1149SOL    HW1 3628   2.368   0.796   1.552
 1149SOL    HW2 3629   2.213   0.797   1.601
 1150SOL     OW 3630   4.745   4.640   4.639
 1150SOL    HW1 3631   4.770   4.731   4.671
 1150SOL    HW2 3632   4.674   4.648   4.569
 1151SOL     OW 3633   0.748   4.618   4.085
 1151SOL    HW1 3634   0.818   4.587   4.149
 1151SOL    HW2 3635   0.740   4.718   4.092
 1152SOL     OW 3636   0.957   2.848   1.584
 1152SOL    HW1 3637   0.990   2.844   1.490
 1152SOL    HW2 3638   0.893   2.925   1.593
 1153SOL     OW 3639   2.414   4.610   1.651
 1153SOL    HW1 3640   2.477   4.625   1.574
 1153SOL    HW2 3641   2.321   4.629   1.621
 1154SOL     OW 3642   3.472   2.101   3.812
 1154SOL    HW1 3643   3.543   2.161   3.776
 1154SOL    HW2 3644   3.391   2.108   3.754
 1155SOL     OW 3645   0.735   2.990   3.578
 1155SOL    HW1 3646   0.823   3.018   3.539
 1155SOL    HW2 3647   0.747   2.907   3.631
 1156SOL     OW 3648   1.020   0.526   2.323
 1156SOL    HW1 3649   1.078   0.445   2.333
 1156SOL    HW2 3650   0.924   0.497   2.313
 1157SOL     OW 3651   0.694   1.744   4.806
 1157SOL    HW1 3652   0.759   1.801   4.755
 1157SOL    HW2 3653   0.638   1.803   4.865
 1158SOL     OW 3654   3.840   1.581   2.555
 1158SOL    HW1 3655   3.744   1.551   2.549
 1158SOL    HW2 3656   3.864   1.593   2.652
 1159SOL     OW 3657   2.763   2.811   2.244
 1159SOL    HW1 3658   2.848   2.770   2.274
 1159SOL    HW2 3659   2.689   2.745   2.255
 1160SOL     OW 3660   2.924   3.084   2.519
 1160SOL    HW1 3661   2.963   3.130   2.439
 1160SOL    HW2 3662   2.912   2.987   2.498
 1161SOL     OW 3663   1.302   1.625   3.860
 1161SOL    HW1 3664   1.389   1.649   3.902
 1161SOL    HW2 3665   1.309   1.536   3.817
 1162SOL     OW 3666   1.100   1.384   0.832
 1162SOL    HW1 3667   1.022   1.320   0.839
 1162SOL    HW2 3668   1.176   1.348   0.886
 1163SOL     OW 3669   3.633   0.973   1.699
 1163SOL    HW1 3670   3.603   0.922   1.618
 1163SOL    HW2 3671   3.683   0.911   1.759
 1164SOL     OW 3672   4.378   1.054   0.722
 1164SOL    HW1 3673   4.427   1.138   0.743
 1164SOL    HW2 3674   4.293   1.051   0.774
 1165SOL     OW 3675   0.343   3.750   0.600
 1165SOL    HW1 3676   0.283   3.733   0.522
 1165SOL    HW2 3677   0.367   3.847   0.603
 1166SOL     OW 3678   1.208   3.766   2.055
 1166SOL    HW1 3679   1.261   3.801   2.132
 1166SOL    HW2 3680   1.203   3.666   2.062
 1167SOL     OW 3681   3.194   3.149   4.291
 1167SOL    HW1 3682   3.103   3.174   4.322
 1167SOL    HW2 3683   3.208   3.051   4.307
 1168SOL     OW 3684   2.850   1.306   4.878
 1168SOL    HW1 3685   2.802   1.272   4.796
 1168SOL    HW2 3686   2.875   1.402   4.863
 1169SOL     OW 3687   2.434   4.403   2.280
 1169SOL    HW1 3688   2.389   4.314   2.280
 1169SOL    HW2 3689   2.497   4.408   2.358
 1170SOL     OW 3690   1.523   0.837   1.183
 1170SOL    HW1 3691   1.522   0.894   1.100
 1170SOL    HW2 3692   1.465   0.881   1.253
 1171SOL     OW 3693   3.646   2.179   2.832
 1171SOL    HW1 3694   3.733   2.141   2.863
 1171SOL    HW2 3695   3.571   2.118   2.860
 1172SOL     OW 3696   2.533   1.618   1.804
 1172SOL    HW1 3697   2.591   1.545   1.768
 1172SOL    HW2 3698   2.478   1.583   1.879
 1173SOL     OW 3699   1.324   2.711   2.984
 1173SOL    HW1 3700   1.376   2.726   3.069
 1173SOL    HW2 3701   1.235   2.671   3.007
 1174SOL     OW 3702   3.089   0.273   0.243
 1174SOL    HW1 3703   3.056   0.344   0.306
 1174SOL    HW2 3704   3.175   0.235   0.279
 1175SOL     OW 3705   4.346   0.376   0.465
 1175SOL    HW1 3706   4.429   0.415   0.424
 1175SOL    HW2 3707   4.285   0.346   0.393
 1176SOL     OW 3708   1.997   4.498   2.255
 1176SOL    HW1 3709   2.076   4.438   2.266
 1176SOL    HW2 3710   1.987   4.521   2.158
 1177SOL     OW 3711   3.136   0.643   2.624
 1177SOL    HW1 3712   3.188   0.728   2.616
 1177SOL    HW2 3713   3.184   0.581   2.686
 1178SOL     OW 3714   3.663   4.583   3.062
 1178SOL    HW1 3715   3.733   4.571   3.132
 1178SOL    HW2 3716   3.630   4.677   3.064
 1179SOL     OW 3717   0.453   1.975   2.926
 1179SOL    HW1 3718   0.467   2.013   3.018
 1179SOL    HW2 3719   0.440   1.876   2.934
 1180SOL     OW 3720   2.589   2.871   3.230
 1180SOL    HW1 3721   2.620   2.939   3.163
 1180SOL    HW2 3722   2.632   2.783   3.208
 1181SOL     OW 3723   2.115   1.451   2.012
 1181SOL    HW1 3724   2.202   1.486   2.046
 1181SOL    HW2 3725   2.097   1.362   2.053
 1182SOL     OW 3726   0.703   2.597   1.633
 1182SOL    HW1 3727   0.781   2.556   1.679
 1182SOL    HW2 3728   0.701   2.696   1.651
 1183SOL     OW 3729   3.667   1.339   2.430
 1183SOL    HW1 3730   3.639   1.300   2.342
 1183SOL    HW2 3731   3.744   1.286   2.466
 1184SOL     OW 3732   1.507   3.721   3.373
 1184SOL    HW1 3733   1.550   3.791   3.316
 1184SOL    HW2 3734   1.479   3.644   3.315
 1185SOL     OW 3735   2.683   4.445   2.854
 1185SOL    HW1 3736   2.701   4.347   2.850
 1185SOL    HW2 3737   2.595   4.464   2.810
 1186SOL     OW 3738   3.861   4.711   2.285
 1186SOL    HW1 3739   3.862   4.788   2.349
 1186SOL    HW2 3740   3.891   4.744   2.195
 1187SOL     OW 3741   3.614   1.831   1.943
 1187SOL    HW1 3742   3.602   1.761   1.873
 1187SOL    HW2 3743   3.624   1.787   2.032
 1188SOL     OW 3744   3.302   3.621   2.823
 1188SOL    HW1 3745   3.369   3.547   2.819
 1188SOL    HW2 3746   3.350   3.708   2.833
 1189SOL     OW 3747   2.333   4.155   2.439
 1189SOL    HW1 3748   2.241   4.122   2.419
 1189SOL    HW2 3749   2.394   4.076   2.452
 1190SOL     OW 3750   2.175   2.943   2.777
 1190SOL    HW1 3751   2.210   2.850   2.789
 1190SOL    HW2 3752   2.250   3.003   2.747
 1191SOL     OW 3753   0.705   1.809   0.472
 1191SOL    HW1 3754   0.709   1.907   0.455
 1191SOL    HW2 3755   0.622   1.788   0.524
 1192SOL     OW 3756   2.354   3.501   3.651
 1192SOL    HW1 3757   2.325   3.596   3.636
 1192SOL    HW2 3758   2.274   3.441   3.641
 1193SOL     OW 3759   1.211   0.195   2.002
 1193SOL    HW1 3760   1.195   0.292   1.981
 1193SOL    HW2 3761   1.305   0.183   2.033
 1194SOL     OW 3762   3.411   4.618   1.427
 1194SOL    HW1 3763   3.397   4.682   1.351
 1194SOL    HW2 3764   3.329   4.618   1.484
 1195SOL     OW 3765   0.614   3.588   2.750
 1195SOL    HW1 3766   0.569   3.676   2.737
 1195SOL    HW2 3767   0.545   3.517   2.762
 1196SOL     OW 3768   3.196   0.222   3.437
 1196SOL    HW1 3769   3.132   0.220   3.514
 1196SOL    HW2 3770   3.258   0.145   3.444
 1197SOL     OW 3771   3.515   0.846   4.761
 1197SOL    HW1 3772   3.432   0.876   4.808
 1197SOL    HW2 3773   3.591   0.906   4.787
 1198SOL     OW 3774   2.106   2.735   1.442
 1198SOL    HW1 3775   2.100   2.835   1.449
 1198SOL    HW2 3776   2.198   2.710   1.414
 1199SOL     OW 3777   2.343   4.641   1.368
 1199SOL    HW1 3778   2.404   4.612   1.294
 1199SOL    HW2 3779   2.322   4.738   1.356
 1200SOL     OW 3780   0.973   1.818   1.520
 1200SOL    HW1 3781   1.047   1.870   1.561
 1200SOL    HW2 3782   0.892   1.824   1.579
 1201SOL     OW 3783   4.302   2.073   4.554
 1201SOL    HW1 3784   4.359   2.105   4.478
 1201SOL    HW2 3785   4.237   2.145   4.579
 1202SOL     OW 3786   3.545   1.910   1.568
 1202SOL    HW1 3787   3.637   1.879   1.543
 1202SOL    HW2 3788   3.528   1.999   1.526
 1203SOL     OW 3789   0.477   4.238   2.807
 1203SOL    HW1 3790   0.515   4.202   2.892
 1203SOL    HW2 3791   0.547   4.290   2.758
 1204SOL     OW 3792   0.842   3.188   2.861
 1204SOL    HW1 3793   0.773   3.123   2.893
 1204SOL    HW2 3794   0.922   3.183   2.921
 1205SOL     OW 3795   0.304   3.948   4.072
 1205SOL    HW1 3796   0.354   4.033   4.055
 1205SOL    HW2 3797   0.221   3.947   4.016
 1206SOL     OW 3798   3.262   2.954   3.447
 1206SOL    HW1 3799   3.233   3.031   3.390
 1206SOL    HW2 3800   3.204   2.951   3.529
 1207SOL     OW 3801   3.952   1.031   4.449
 1207SOL    HW1 3802   4.051   1.045   4.458
 1207SOL    HW2 3803   3.933   0.933   4.450
 1208SOL     OW 3804   1.978   1.781   3.521
 1208SOL    HW1 3805   1.910   1.832   3.468
 1208SOL    HW2 3806   2.064   1.833   3.523
 1209SOL     OW 3807   1.583   2.846   3.702
 1209SOL    HW1 3808   1.494   2.813   3.731
 1209SOL    HW2 3809   1.630   2.888   3.780
 1210SOL     OW 3810   1.987   0.685   1.901
 1210SOL    HW1 3811   1.935   0.734   1.972
 1210SOL    HW2 3812   2.074   0.656   1.939
 1211SOL     OW 3813   4.354   1.187   3.806
 1211SOL    HW1 3814   4.321   1.116   3.868
 1211SOL    HW2 3815   4.433   1.153   3.756
 1212SOL     OW 3816   4.451   4.754   0.487
 1212SOL    HW1 3817   4.508   4.674   0.503
 1212SOL    HW2 3818   4.494   4.834   0.531
 1213SOL     OW 3819   4.431   1.525   1.760
 1213SOL    HW1 3820   4.450   1.607   1.706
 1213SOL    HW2 3821   4.517   1.475   1.773
 1214SOL     OW 3822   4.765   2.441   0.817
 1214SOL    HW1 3823   4.853   2.423   0.771
 1214SOL    HW2 3824   4.781   2.499   0.897
 1215SOL     OW 3825   3.945   0.859   2.512
 1215SOL    HW1 3826   4.002   0.940   2.527
 1215SOL    HW2 3827   4.003   0.777   2.517
 1216SOL     OW 3828   3.506   4.378   2.314
 1216SOL    HW1 3829   3.441   4.311   2.349
 1216SOL    HW2 3830   3.508   4.457   2.375
 1217SOL     OW 3831   2.230   0.240   3.505
 1217SOL    HW1 3832   2.136   0.211   3.488
 1217SOL    HW2 3833   2.288   0.211   3.429
 1218SOL     OW 3834   2.939   2.531   1.773
 1218SOL    HW1 3835   2.995   2.560   1.695
 1218SOL    HW2 3836   2.864   2.473   1.740
 1219SOL     OW 3837   3.878   2.716   0.592
 1219SOL    HW1 3838   3.947   2.708   0.520
 1219SOL    HW2 3839   3.793   2.750   0.552
 1220SOL     OW 3840   3.252   0.574   3.241
 1220SOL    HW1 3841   3.329   0.588   3.178
 1220SOL    HW2 3842   3.264   0.486   3.287
 1221SOL     OW 3843   1.902   1.613   1.206
 1221SOL    HW1 3844   1.972   1.680   1.232
 1221SOL    HW2 3845   1.885   1.551   1.283
 1222SOL     OW 3846   1.957   2.366   3.792
 1222SOL    HW1 3847   1.899   2.407   3.722
 1222SOL    HW2 3848   1.947   2.417   3.878
 1223SOL     OW 3849   1.102   1.345   0.232
 1223SOL    HW1 3850   1.061   1.411   0.170
 1223SOL    HW2 3851   1.045   1.263   0.236
 1224SOL     OW 3852   3.967   0.967   0.369
 1224SOL    HW1 3853   4.025   1.048   0.374
 1224SOL    HW2 3854   3.898   0.979   0.298
 1225SOL     OW 3855   3.090   1.573   1.850
 1225SOL    HW1 3856   3.116   1.487   1.806
 1225SOL    HW2 3857   3.146   1.647   1.812
 1226SOL     OW 3858   3.763   1.335   3.295
 1226SOL    HW1 3859   3.719   1.267   3.354
 1226SOL    HW2 3860   3.861   1.339   3.316
 1227SOL     OW 3861   4.503   0.593   2.985
 1227SOL    HW1 3862   4.593   0.617   3.022
 1227SOL    HW2 3863   4.436   0.660   3.014
 1228SOL     OW 3864   3.632   3.342   0.627
 1228SOL    HW1 3865   3.712   3.349   0.687
 1228SOL    HW2 3866   3.628   3.423   0.568
 1229SOL     OW 3867   4.495   1.603   0.484
 1229SOL    HW1 3868   4.570   1.643   0.432
 1229SOL    HW2 3869   4.478   1.659   0.566
 1230SOL     OW 3870   3.468   0.932   2.048
 1230SOL    HW1 3871   3.500   1.023   2.074
 1230SOL    HW2 3872   3.484   0.919   1.950
 1231SOL     OW 3873   2.056   1.543   2.353
 1231SOL    HW1 3874   2.088   1.624   2.403
 1231SOL    HW2 3875   2.018   1.477   2.418
 1232SOL     OW 3876   3.414   0.862   3.780
 1232SOL    HW1 3877   3.463   0.948   3.793
 1232SOL    HW2 3878   3.387   0.854   3.684
 1233SOL     OW 3879   1.569   0.999   0.169
 1233SOL    HW1 3880   1.638   0.935   0.135
 1233SOL    HW2 3881   1.479   0.970   0.137
 1234SOL     OW 3882   0.561   1.306   0.393
 1234SOL    HW1 3883   0.600   1.214   0.404
 1234SOL    HW2 3884   0.472   1.310   0.440
 1235SOL     OW 3885   0.572   0.778   0.633
 1235SOL    HW1 3886   0.560   0.728   0.547
 1235SOL    HW2 3887   0.500   0.751   0.697
 1236SOL     OW 3888   0.540   3.798   1.446
 1236SOL    HW1 3889   0.545   3.706   1.407
 1236SOL    HW2 3890   0.615   3.853   1.411
 1237SOL     OW 3891   0.360   0.353   4.710
 1237SOL    HW1 3892   0.264   0.365   4.684
 1237SOL    HW2 3893   0.391   0.433   4.761
 1238SOL     OW 3894   4.584   2.424   1.584
 1238SOL    HW1 3895   4.509   2.361   1.562
 1238SOL    HW2 3896   4.663   2.371   1.613
 1239SOL     OW 3897   4.374   0.314   3.571
 1239SOL    HW1 3898   4.375   0.397   3.627
 1239SOL    HW2 3899   4.410   0.336   3.480
 1240SOL     OW 3900   2.963   4.612   1.017
 1240SOL    HW1 3901   2.968   4.512   1.022
 1240SOL    HW2 3902   2.868   4.641   1.023
 1241SOL     OW 3903   2.410   0.235   1.101
 1241SOL    HW1 3904   2.360   0.280   1.027
 1241SOL    HW2 3905   2.344   0.196   1.166
 1242SOL     OW 3906   1.079   3.961   2.949
 1242SOL    HW1 3907   0.990   3.972   2.994
 1242SOL    HW2 3908   1.136   3.900   3.003
 1243SOL     OW 3909   2.283   4.803   0.867
 1243SOL    HW1 3910   2.190   4.766   0.875
 1243SOL    HW2 3911   2.344   4.752   0.927
 1244SOL     OW 3912   2.291   2.001   4.144
 1244SOL    HW1 3913   2.324   2.094   4.130
 1244SOL    HW2 3914   2.194   2.002   4.167
 1245SOL     OW 3915   4.549   4.065   0.756
 1245SOL    HW1 3916   4.465   4.016   0.736
 1245SOL    HW2 3917   4.585   4.105   0.671
 1246SOL     OW 3918   4.288   2.181   1.968
 1246SOL    HW1 3919   4.294   2.165   1.870
 1246SOL    HW2 3920   4.279   2.279   1.985
 1247SOL     OW 3921   3.897   3.531   0.707
 1247SOL    HW1 3922   3.928   3.520   0.612
 1247SOL    HW2 3923   3.977   3.527   0.768
 1248SOL     OW 3924   3.860   2.336   0.955
 1248SOL    HW1 3925   3.951   2.372   0.933
 1248SOL    HW2 3926   3.865   2.236   0.957
 1249SOL     OW 3927   2.247   2.794   4.388
 1249SOL    HW1 3928   2.304   2.824   4.465
 1249SOL    HW2 3929   2.217   2.874   4.336
 1250SOL     OW 3930   1.647   0.722   1.761
 1250SOL    HW1 3931   1.633   0.627   1.733
 1250SOL    HW2 3932   1.724   0.726   1.825
 1251SOL     OW 3933   1.795   1.206   0.299
 1251SOL    HW1 3934   1.886   1.231   0.265
 1251SOL    HW2 3935   1.789   1.106   0.302
 1252SOL     OW 3936   4.195   1.619   2.476
 1252SOL    HW1 3937   4.109   1.654   2.512
 1252SOL    HW2 3938   4.262   1.615   2.551
 1253SOL     OW 3939   0.811   1.400   3.257
 1253SOL    HW1 3940   0.818   1.342   3.338
 1253SOL    HW2 3941   0.845   1.350   3.177
 1254SOL     OW 3942   0.677   4.677   4.408
 1254SOL    HW1 3943   0.709   4.759   4.360
 1254SOL    HW2 3944   0.578   4.683   4.421
 1255SOL     OW 3945   3.433   3.789   0.385
 1255SOL    HW1 3946   3.462   3.767   0.478
 1255SOL    HW2 3947   3.373   3.870   0.389
 1256SOL     OW 3948   3.498   2.692   0.690
 1256SOL    HW1 3949   3.588   2.658   0.662
 1256SOL    HW2 3950   3.471   2.768   0.630
 1257SOL     OW 3951   4.055   3.251   0.518
 1257SOL    HW1 3952   4.051   3.160   0.559
 1257SOL    HW2 3953   4.143   3.262   0.472
 1258SOL     OW 3954   2.991   0.610   0.799
 1258SOL    HW1 3955   3.001   0.556   0.882
 1258SOL    HW2 3956   2.915   0.674   0.810
 1259SOL     OW 3957   2.085   0.640   1.176
 1259SOL    HW1 3958   2.030   0.590   1.244
 1259SOL    HW2 3959   2.066   0.738   1.184
 1260SOL     OW 3960   2.986   2.029   0.320
 1260SOL    HW1 3961   2.983   2.124   0.288
 1260SOL    HW2 3962   2.907   2.013   0.379
 1261SOL     OW 3963   2.991   4.628   2.207
 1261SOL    HW1 3964   2.953   4.613   2.115
 1261SOL    HW2 3965   2.957   4.715   2.243
 1262SOL     OW 3966   0.771   0.720   4.820
 1262SOL    HW1 3967   0.721   0.799   4.855
 1262SOL    HW2 3968   0.854   0.752   4.775
 1263SOL     OW 3969   4.196   2.994   2.954
 1263SOL    HW1 3970   4.112   2.984   3.007
 1263SOL    HW2 3971   4.273   2.958   3.007
 1264SOL     OW 3972   1.142   1.761   2.935
 1264SOL    HW1 3973   1.190   1.705   3.002
 1264SOL    HW2 3974   1.196   1.844   2.917
 1265SOL     OW 3975   1.171   2.417   2.114
 1265SOL    HW1 3976   1.233   2.476   2.165
 1265SOL    HW2 3977   1.207   2.403   2.022
 1266SOL     OW 3978   3.780   0.858   4.621
 1266SOL    HW1 3979   3.695   0.808   4.605
 1266SOL    HW2 3980   3.764   0.956   4.609
 1267SOL     OW 3981   3.595   4.051   2.910
 1267SOL    HW1 3982   3.690   4.026   2.926
 1267SOL    HW2 3983   3.537   3.970   2.921
 1268SOL     OW 3984   0.570   2.657   3.351
 1268SOL    HW1 3985   0.603   2.731   3.409
 1268SOL    HW2 3986   0.608   2.570   3.383
 1269SOL     OW 3987   3.173   4.446   4.391
 1269SOL    HW1 3988   3.103   4.397   4.339
 1269SOL    HW2 3989   3.178   4.540   4.358
 1270SOL     OW 3990   2.961   0.967   4.201
 1270SOL    HW1 3991   2.967   1.058   4.242
 1270SOL    HW2 3992   3.047   0.944   4.157
 1271SOL     OW 3993   1.036   4.312   2.423
 1271SOL    HW1 3994   1.002   4.398   2.384
 1271SOL    HW2 3995   1.119   4.332   2.476
 1272SOL     OW 3996   0.260   1.453   1.824
 1272SOL    HW1 3997   0.184   1.397   1.790
 1272SOL    HW2 3998   0.266   1.442   1.923
 1273SOL     OW 3999   3.953   3.005   3.619
 1273SOL    HW1 4000   4.047   2.996   3.651
 1273SOL    HW2 4001   3.892   2.953   3.679
 1274SOL     OW 4002   3.981   1.520   3.414
 1274SOL    HW1 4003   4.049   1.593   3.406
 1274SOL    HW2 4004   3.890   1.558   3.403
 1275SOL     OW 4005   1.421   2.321   4.327
 1275SOL    HW1 4006   1.480   2.402   4.328
 1275SOL    HW2 4007   1.446   2.264   4.248
 1276SOL     OW 4008   2.205   2.138   3.480
 1276SOL    HW1 4009   2.166   2.215   3.530
 1276SOL    HW2 4010   2.262   2.084   3.542
 1277SOL     OW 4011   1.789   4.642   2.437
 1277SOL    HW1 4012   1.879   4.615   2.403
 1277SOL    HW2 4013   1.744   4.564   2.480
 1278SOL     OW 4014   0.882   2.101   4.692
 1278SOL    HW1 4015   0.890   2.201   4.686
 1278SOL    HW2 4016   0.845   2.065   4.606
 1279SOL     OW 4017   4.213   1.868   0.568
 1279SOL    HW1 4018   4.137   1.839   0.510
 1279SOL    HW2 4019   4.300   1.847   0.522
 1280SOL     OW 4020   3.700   3.919   0.432
 1280SOL    HW1 4021   3.785   3.935   0.381
 1280SOL    HW2 4022   3.642   3.857   0.380
 1281SOL     OW 4023   0.944   4.318   1.874
 1281SOL    HW1 4024   0.954   4.342   1.778
 1281SOL    HW2 4025   0.913   4.223   1.881
 1282SOL     OW 4026   0.214   1.316   3.362
 1282SOL    HW1 4027   0.270   1.369   3.426
 1282SOL    HW2 4028   0.251   1.224   3.355
 1283SOL     OW 4029   0.750   1.863   2.607
 1283SOL    HW1 4030   0.710   1.874   2.516
 1283SOL    HW2 4031   0.687   1.901   2.675
 1284SOL     OW 4032   3.531   3.642   0.635
 1284SOL    HW1 4033   3.454   3.603   0.687
 1284SOL    HW2 4034   3.611   3.647   0.695
 1285SOL     OW 4035   0.731   3.018   1.708
 1285SOL    HW1 4036   0.722   3.118   1.708
 1285SOL    HW2 4037   0.643   2.977   1.683
 1286SOL     OW 4038   4.617   4.352   2.004
 1286SOL    HW1 4039   4.629   4.263   1.959
 1286SOL    HW2 4040   4.582   4.336   2.097
 1287SOL     OW 4041   4.206   4.673   3.880
 1287SOL    HW1 4042   4.234   4.754   3.829
 1287SOL    HW2 4043   4.259   4.666   3.964
 1288SOL     OW 4044   0.960   0.713   1.512
 1288SOL    HW1 4045   0.977   0.624   1.469
 1288SOL    HW2 4046   0.988   0.709   1.608
 1289SOL     OW 4047   2.253   1.114   2.925
 1289SOL    HW1 4048   2.252   1.023   2.885
 1289SOL    HW2 4049   2.337   1.125   2.979
 1290SOL     OW 4050   2.022   4.323   3.770
 1290SOL    HW1 4051   1.967   4.324   3.686
 1290SOL    HW2 4052   2.055   4.230   3.786
 1291SOL     OW 4053   2.283   4.737   3.239
 1291SOL    HW1 4054   2.370   4.743   3.191
 1291SOL    HW2 4055   2.299   4.749   3.337
 1292SOL     OW 4056   1.734   1.028   2.720
 1292SOL    HW1 4057   1.682   1.111   2.703
 1292SOL    HW2 4058   1.713   0.994   2.812
 1293SOL     OW 4059   3.215   2.244   3.705
 1293SOL    HW1 4060   3.266   2.286   3.629
 1293SOL    HW2 4061   3.121   2.278   3.704
 1294SOL     OW 4062   1.497   4.580   4.569
 1294SOL    HW1 4063   1.561   4.504   4.560
 1294SOL    HW2 4064   1.546   4.663   4.593
 1295SOL     OW 4065   3.032   4.705   3.176
 1295SOL    HW1 4066   3.069   4.630   3.122
 1295SOL    HW2 4067   2.999   4.777   3.114
 1296SOL     OW 4068   1.169   2.926   1.011
 1296SOL    HW1 4069   1.255   2.968   1.040
 1296SOL    HW2 4070   1.181   2.882   0.922
 1297SOL     OW 4071   0.994   0.490   1.953
 1297SOL    HW1 4072   0.933   0.425   1.998
 1297SOL    HW2 4073   1.059   0.526   2.019
 1298SOL     OW 4074   1.197   3.729   4.374
 1298SOL    HW1 4075   1.162   3.822   4.386
 1298SOL    HW2 4076   1.297   3.731   4.371
 1299SOL     OW 4077   4.331   2.381   1.472
 1299SOL    HW1 4078   4.385   2.465   1.468
 1299SOL    HW2 4079   4.236   2.402   1.450
 1300SOL     OW 4080   4.502   2.884   3.859
 1300SOL    HW1 4081   4.580   2.930   3.901
 1300SOL    HW2 4082   4.505   2.787   3.881
 1301SOL     OW 4083   1.128   2.086   1.395
 1301SOL    HW1 4084   1.051   2.031   1.360
 1301SOL    HW2 4085   1.212   2.056   1.349
 1302SOL     OW 4086   2.432   1.895   2.836
 1302SOL    HW1 4087   2.389   1.983   2.855
 1302SOL    HW2 4088   2.427   1.838   2.918
 1303SOL     OW 4089   2.558   3.299   3.756
 1303SOL    HW1 4090   2.468   3.332   3.784
 1303SOL    HW2 4091   2.620   3.377   3.747
 1304SOL     OW 4092   2.230   1.876   3.360
 1304SOL    HW1 4093   2.321   1.919   3.359
 1304SOL    HW2 4094   2.165   1.937   3.313
 1305SOL     OW 4095   1.707   4.041   1.466
 1305SOL    HW1 4096   1.737   3.986   1.388
 1305SOL    HW2 4097   1.632   4.101   1.437
 1306SOL     OW 4098   2.886   1.593   2.623
 1306SOL    HW1 4099   2.943   1.515   2.648
 1306SOL    HW2 4100   2.895   1.610   2.525
 1307SOL     OW 4101   4.148   4.231   4.537
 1307SOL    HW1 4102   4.169   4.263   4.444
 1307SOL    HW2 4103   4.092   4.300   4.583
 1308SOL     OW 4104   4.230   0.264   3.044
 1308SOL    HW1 4105   4.147   0.239   3.094
 1308SOL    HW2 4106   4.222   0.234   2.949
 1309SOL     OW 4107   1.611   0.666   0.793
 1309SOL    HW1 4108   1.659   0.579   0.780
 1309SOL    HW2 4109   1.523   0.662   0.746
 1310SOL     OW 4110   2.684   1.314   0.839
 1310SOL    HW1 4111   2.684   1.298   0.740
 1310SOL    HW2 4112   2.658   1.408   0.857
 1311SOL     OW 4113   4.172   0.345   1.313
 1311SOL    HW1 4114   4.222   0.314   1.393
 1311SOL    HW2 4115   4.146   0.441   1.326
 1312SOL     OW 4116   2.323   1.054   4.528
 1312SOL    HW1 4117   2.258   1.130   4.526
 1312SOL    HW2 4118   2.402   1.076   4.470
 1313SOL     OW 4119   1.115   0.319   0.845
 1313SOL    HW1 4120   1.083   0.225   0.835
 1313SOL    HW2 4121   1.214   0.322   0.832
 1314SOL     OW 4122   4.543   2.684   0.594
 1314SOL    HW1 4123   4.607   2.676   0.670
 1314SOL    HW2 4124   4.576   2.630   0.517
 1315SOL     OW 4125   2.978   3.800   4.190
 1315SOL    HW1 4126   3.073   3.812   4.218
 1315SOL    HW2 4127   2.918   3.820   4.268
 1316SOL     OW 4128   3.572   3.140   4.592
 1316SOL    HW1 4129   3.599   3.203   4.520
 1316SOL    HW2 4130   3.634   3.061   4.593
 1317SOL     OW 4131   0.324   3.267   1.687
 1317SOL    HW1 4132   0.323   3.255   1.588
 1317SOL    HW2 4133   0.233   3.250   1.723
 1318SOL     OW 4134   3.504   3.377   3.518
 1318SOL    HW1 4135   3.534   3.470   3.542
 1318SOL    HW2 4136   3.513   3.318   3.598
 1319SOL     OW 4137   1.198   1.644   4.488
 1319SOL    HW1 4138   1.132   1.708   4.526
 1319SOL    HW2 4139   1.150   1.574   4.435
 1320SOL     OW 4140   1.870   2.169   4.520
 1320SOL    HW1 4141   1.878   2.070   4.520
 1320SOL    HW2 4142   1.913   2.205   4.603
 1321SOL     OW 4143   1.441   0.666   2.989
 1321SOL    HW1 4144   1.446   0.737   3.060
 1321SOL    HW2 4145   1.481   0.581   3.023
 1322SOL     OW 4146   1.930   0.405   1.288
 1322SOL    HW1 4147   1.840   0.435   1.255
 1322SOL    HW2 4148   1.919   0.359   1.376
 1323SOL     OW 4149   3.458   1.986   0.687
 1323SOL    HW1 4150   3.433   2.072   0.732
 1323SOL    HW2 4151   3.387   1.918   0.705
 1324SOL     OW 4152   2.857   1.965   4.519
 1324SOL    HW1 4153   2.762   1.947   4.545
 1324SOL    HW2 4154   2.916   1.902   4.569
 1325SOL     OW 4155   4.342   3.529   4.774
 1325SOL    HW1 4156   4.336   3.628   4.783
 1325SOL    HW2 4157   4.361   3.489   4.863
 1326SOL     OW 4158   1.505   1.351   0.260
 1326SOL    HW1 4159   1.434   1.283   0.278
 1326SOL    HW2 4160   1.582   1.307   0.214
 1327SOL     OW 4161   1.340   4.489   3.597
 1327SOL    HW1 4162   1.409   4.417   3.594
 1327SOL    HW2 4163   1.263   4.459   3.652
 1328SOL     OW 4164   2.616   4.067   1.118
 1328SOL    HW1 4165   2.542   4.106   1.172
 1328SOL    HW2 4166   2.598   3.969   1.103
 1329SOL     OW 4167   1.582   1.509   3.678
 1329SOL    HW1 4168   1.523   1.571   3.628
 1329SOL    HW2 4169   1.677   1.524   3.651
 1330SOL     OW 4170   3.843   4.102   1.320
 1330SOL    HW1 4171   3.896   4.056   1.249
 1330SOL    HW2 4172   3.747   4.106   1.293
 1331SOL     OW 4173   0.275   1.432   0.409
 1331SOL    HW1 4174   0.201   1.407   0.472
 1331SOL    HW2 4175   0.321   1.514   0.443
 1332SOL     OW 4176   3.304   3.221   2.776
 1332SOL    HW1 4177   3.357   3.185   2.853
 1332SOL    HW2 4178   3.209   3.195   2.787
 1333SOL     OW 4179   2.803   2.213   3.902
 1333SOL    HW1 4180   2.816   2.193   3.805
 1333SOL    HW2 4181   2.826   2.132   3.956
 1334SOL     OW 4182   3.891   4.120   3.234
 1334SOL    HW1 4183   3.950   4.054   3.280
 1334SOL    HW2 4184   3.922   4.212   3.255
 1335SOL     OW 4185   3.914   4.733   1.569
 1335SOL    HW1 4186   3.876   4.744   1.661
 1335SOL    HW2 4187   3.922   4.635   1.548
 1336SOL     OW 4188   3.850   1.533   2.255
 1336SOL    HW1 4189   3.798   1.493   2.330
 1336SOL    HW2 4190   3.890   1.620   2.285
 1337SOL     OW 4191   1.535   1.715   2.170
 1337SOL    HW1 4192   1.545   1.782   2.244
 1337SOL    HW2 4193   1.525   1.624   2.210
 1338SOL     OW 4194   2.139   2.907   0.668
 1338SOL    HW1 4195   2.185   2.996   0.671
 1338SOL    HW2 4196   2.135   2.869   0.761
 1339SOL     OW 4197   2.584   3.019   1.346
 1339SOL    HW1 4198   2.553   2.927   1.373
 1339SOL    HW2 4199   2.551   3.086   1.412
 1340SOL     OW 4200   0.878   1.164   3.111
 1340SOL    HW1 4201   0.786   1.166   3.073
 1340SOL    HW2 4202   0.942   1.133   3.041
 1341SOL     OW 4203   2.482   0.719   1.081
 1341SOL    HW1 4204   2.412   0.650   1.061
 1341SOL    HW2 4205   2.440   0.810   1.076
 1342SOL     OW 4206   1.264   3.030   4.298
 1342SOL    HW1 4207   1.254   3.092   4.375
 1342SOL    HW2 4208   1.199   2.954   4.308
 1343SOL     OW 4209   3.467   0.609   2.496
 1343SOL    HW1 4210   3.390   0.658   2.538
 1343SOL    HW2 4211   3.552   0.636   2.541
 1344SOL     OW 4212   4.642   1.731   0.737
 1344SOL    HW1 4213   4.588   1.693   0.812
 1344SOL    HW2 4214   4.713   1.666   0.711
 1345SOL     OW 4215   1.289   1.906   2.186
 1345SOL    HW1 4216   1.264   1.971   2.114
 1345SOL    HW2 4217   1.218   1.837   2.195
 1346SOL     OW 4218   2.822   1.868   4.185
 1346SOL    HW1 4219   2.891   1.867   4.257
 1346SOL    HW2 4220   2.845   1.800   4.116
 1347SOL     OW 4221   1.508   2.761   1.606
 1347SOL    HW1 4222   1.454   2.750   1.690
 1347SOL    HW2 4223   1.446   2.775   1.529
 1348SOL     OW 4224   2.250   4.600   4.334
 1348SOL    HW1 4225   2.174   4.664   4.349
 1348SOL    HW2 4226   2.241   4.560   4.242
 1349SOL     OW 4227   1.934   1.147   3.268
 1349SOL    HW1 4228   2.012   1.208   3.258
 1349SOL    HW2 4229   1.930   1.085   3.189
 1350SOL     OW 4230   0.732   4.813   1.630
 1350SOL    HW1 4231   0.680   4.749   1.572
 1350SOL    HW2 4232   0.668   4.863   1.688
 1351SOL     OW 4233   2.255   0.643   0.191
 1351SOL    HW1 4234   2.220   0.624   0.283
 1351SOL    HW2 4235   2.230   0.736   0.165
 1352SOL     OW 4236   0.201   2.069   3.134
 1352SOL    HW1 4237   0.154   2.041   3.218
 1352SOL    HW2 4238   0.249   1.990   3.096
 1353SOL     OW 4239   1.819   4.586   1.012
 1353SOL    HW1 4240   1.859   4.649   1.078
 1353SOL    HW2 4241   1.739   4.543   1.053
 1354SOL     OW 4242   0.281   2.477   3.749
 1354SOL    HW1 4243   0.251   2.570   3.774
 1354SOL    HW2 4244   0.347   2.484   3.674
 1355SOL     OW 4245   0.933   1.551   1.100
 1355SOL    HW1 4246   1.031   1.573   1.096
 1355SOL    HW2 4247   0.896   1.579   1.188
 1356SOL     OW 4248   1.288   1.022   1.907
 1356SOL    HW1 4249   1.382   0.997   1.883
 1356SOL    HW2 4250   1.225   0.957   1.866
 1357SOL     OW 4251   1.365   4.168   1.356
 1357SOL    HW1 4252   1.268   4.152   1.337
 1357SOL    HW2 4253   1.410   4.199   1.272
 1358SOL     OW 4254   0.928   2.864   4.279
 1358SOL    HW1 4255   0.848   2.908   4.319
 1358SOL    HW2 4256   0.908   2.767   4.264
 1359SOL     OW 4257   0.498   0.586   4.140
 1359SOL    HW1 4258   0.424   0.545   4.194
 1359SOL    HW2 4259   0.487   0.686   4.140
 1360SOL     OW 4260   4.489   3.982   4.125
 1360SOL    HW1 4261   4.532   3.925   4.055
 1360SOL    HW2 4262   4.517   4.077   4.111
 1361SOL     OW 4263   2.680   0.761   0.860
 1361SOL    HW1 4264   2.621   0.737   0.936
 1361SOL    HW2 4265   2.625   0.795   0.784
 1362SOL     OW 4266   1.802   3.385   2.721
 1362SOL    HW1 4267   1.775   3.355   2.812
 1362SOL    HW2 4268   1.785   3.312   2.655
 1363SOL     OW 4269   4.708   3.469   2.031
 1363SOL    HW1 4270   4.732   3.376   2.002
 1363SOL    HW2 4271   4.617   3.469   2.070
 1364SOL     OW 4272   1.753   2.630   1.369
 1364SOL    HW1 4273   1.799   2.718   1.363
 1364SOL    HW2 4274   1.687   2.633   1.444
 1365SOL     OW 4275   2.799   1.649   3.221
 1365SOL    HW1 4276   2.803   1.738   3.265
 1365SOL    HW2 4277   2.761   1.659   3.129
 1366SOL     OW 4278   3.573   2.637   2.902
 1366SOL    HW1 4279   3.618   2.630   2.991
 1366SOL    HW2 4280   3.501   2.568   2.897
 1367SOL     OW 4281   1.187   1.644   2.293
 1367SOL    HW1 4282   1.250   1.612   2.223
 1367SOL    HW2 4283   1.100   1.669   2.250
 1368SOL     OW 4284   0.963   0.406   4.749
 1368SOL    HW1 4285   0.930   0.360   4.831
 1368SOL    HW2 4286   0.893   0.403   4.679
 1369SOL     OW 4287   2.418   3.612   2.580
 1369SOL    HW1 4288   2.431   3.693   2.523
 1369SOL    HW2 4289   2.465   3.625   2.667
 1370SOL     OW 4290   4.122   3.844   1.550
 1370SOL    HW1 4291   4.075   3.930   1.570
 1370SOL    HW2 4292   4.178   3.856   1.468
 1371SOL     OW 4293   1.350   3.927   1.148
 1371SOL    HW1 4294   1.387   3.840   1.114
 1371SOL    HW2 4295   1.251   3.925   1.141
 1372SOL     OW 4296   0.375   3.638   4.305
 1372SOL    HW1 4297   0.363   3.692   4.221
 1372SOL    HW2 4298   0.287   3.601   4.332
 1373SOL     OW 4299   1.525   3.189   4.483
 1373SOL    HW1 4300   1.459   3.115   4.500
 1373SOL    HW2 4301   1.611   3.167   4.530
 1374SOL     OW 4302   1.270   4.591   0.814
 1374SOL    HW1 4303   1.340   4.585   0.743
 1374SOL    HW2 4304   1.274   4.510   0.872
 1375SOL     OW 4305   3.189   1.805   4.595
 1375SOL    HW1 4306   3.212   1.721   4.546
 1375SOL    HW2 4307   3.271   1.840   4.640
 1376SOL     OW 4308   1.724   1.950   4.694
 1376SOL    HW1 4309   1.646   1.964   4.634
 1376SOL    HW2 4310   1.752   2.037   4.734
 1377SOL     OW 4311   2.464   4.099   1.425
 1377SOL    HW1 4312   2.439   4.130   1.517
 1377SOL    HW2 4313   2.548   4.046   1.430
 1378SOL     OW 4314   2.131   1.869   0.964
 1378SOL    HW1 4315   2.150   1.792   0.904
 1378SOL    HW2 4316   2.202   1.939   0.951
 1379SOL     OW 4317   2.976   3.014   3.327
 1379SOL    HW1 4318   2.955   2.920   3.302
 1379SOL    HW2 4319   2.892   3.058   3.361
 1380SOL     OW 4320   2.979   3.976   4.498
 1380SOL    HW1 4321   3.063   4.031   4.496
 1380SOL    HW2 4322   2.918   4.006   4.425
 1381SOL     OW 4323   0.283   3.828   0.218
 1381SOL    HW1 4324   0.371   3.781   0.230
 1381SOL    HW2 4325   0.287   3.918   0.260
 1382SOL     OW 4326   2.819   1.563   4.774
 1382SOL    HW1 4327   2.786   1.651   4.809
 1382SOL    HW2 4328   2.886   1.579   4.702
 1383SOL     OW 4329   1.007   1.351   4.383
 1383SOL    HW1 4330   1.055   1.386   4.302
 1383SOL    HW2 4331   1.018   1.252   4.388
 1384SOL     OW 4332   1.056   3.345   1.070
 1384SOL    HW1 4333   1.049   3.263   1.013
 1384SOL    HW2 4334   1.152   3.372   1.077
 1385SOL     OW 4335   3.930   3.287   1.802
 1385SOL    HW1 4336   3.939   3.242   1.713
 1385SOL    HW2 4337   3.834   3.304   1.821
 1386SOL     OW 4338   2.806   0.844   2.518
 1386SOL    HW1 4339   2.749   0.920   2.548
 1386SOL    HW2 4340   2.902   0.868   2.533
 1387SOL     OW 4341   1.299   3.871   1.487
 1387SOL    HW1 4342   1.356   3.953   1.484
 1387SOL    HW2 4343   1.239   3.876   1.567
 1388SOL     OW 4344   3.492   3.840   3.999
 1388SOL    HW1 4345   3.410   3.784   3.989
 1388SOL    HW2 4346   3.541   3.841   3.912
 1389SOL     OW 4347   0.868   2.380   2.330
 1389SOL    HW1 4348   0.885   2.470   2.289
 1389SOL    HW2 4349   0.921   2.311   2.281
 1390SOL     OW 4350   1.020   1.892   2.282
 1390SOL    HW1 4351   1.025   1.970   2.220
 1390SOL    HW2 4352   1.079   1.910   2.362
 1391SOL     OW 4353   1.155   3.147   2.439
 1391SOL    HW1 4354   1.174   3.201   2.521
 1391SOL    HW2 4355   1.059   3.158   2.414
 1392SOL     OW 4356   2.706   1.147   1.771
 1392SOL    HW1 4357   2.690   1.137   1.869
 1392SOL    HW2 4358   2.759   1.069   1.738
 1393SOL     OW 4359   2.016   3.880   4.667
 1393SOL    HW1 4360   2.081   3.804   4.664
 1393SOL    HW2 4361   1.981   3.897   4.575
 1394SOL     OW 4362   1.330   1.228   2.457
 1394SOL    HW1 4363   1.242   1.267   2.484
 1394SOL    HW2 4364   1.329   1.130   2.476
 1395SOL     OW 4365   1.812   2.924   0.245
 1395SOL    HW1 4366   1.804   2.877   0.157
 1395SOL    HW2 4367   1.792   3.021   0.233
 1396SOL     OW 4368   1.334   3.106   2.817
 1396SOL    HW1 4369   1.360   3.094   2.722
 1396SOL    HW2 4370   1.388   3.044   2.874
 1397SOL     OW 4371   0.649   2.783   0.584
 1397SOL    HW1 4372   0.599   2.696   0.582
 1397SOL    HW2 4373   0.637   2.830   0.497
 1398SOL     OW 4374   2.717   1.443   4.482
 1398SOL    HW1 4375   2.703   1.352   4.443
 1398SOL    HW2 4376   2.728   1.435   4.581
 1399SOL     OW 4377   0.849   1.314   1.324
 1399SOL    HW1 4378   0.901   1.233   1.296
 1399SOL    HW2 4379   0.762   1.285   1.364
 1400SOL     OW 4380   3.932   2.551   3.664
 1400SOL    HW1 4381   4.011   2.579   3.608
 1400SOL    HW2 4382   3.852   2.603   3.635
 1401SOL     OW 4383   2.363   4.447   3.387
 1401SOL    HW1 4384   2.289   4.511   3.410
 1401SOL    HW2 4385   2.325   4.371   3.335
 1402SOL     OW 4386   2.869   2.383   1.102
 1402SOL    HW1 4387   2.792   2.335   1.062
 1402SOL    HW2 4388   2.881   2.472   1.057
 1403SOL     OW 4389   3.695   2.701   4.831
 1403SOL    HW1 4390   3.718   2.793   4.797
 1403SOL    HW2 4391   3.596   2.693   4.838
 1404SOL     OW 4392   4.072   4.084   1.759
 1404SOL    HW1 4393   4.143   4.013   1.767
 1404SOL    HW2 4394   4.083   4.150   1.834
 1405SOL     OW 4395   4.412   0.246   2.446
 1405SOL    HW1 4396   4.487   0.281   2.390
 1405SOL    HW2 4397   4.377   0.162   2.403
 1406SOL     OW 4398   3.535   4.826   1.974
 1406SOL    HW1 4399   3.529   4.755   2.044
 1406SOL    HW2 4400   3.598   4.796   1.903
 1407SOL     OW 4401   3.156   4.672   3.564
 1407SOL    HW1 4402   3.171   4.620   3.480
 1407SOL    HW2 4403   3.225   4.645   3.632
 1408SOL     OW 4404   1.621   1.332   0.581
 1408SOL    HW1 4405   1.550   1.281   0.532
 1408SOL    HW2 4406   1.644   1.414   0.529
 1409SOL     OW 4407   3.944   1.692   0.441
 1409SOL    HW1 4408   3.930   1.776   0.389
 1409SOL    HW2 4409   3.863   1.634   0.434
 1410SOL     OW 4410   4.747   3.148   1.718
 1410SOL    HW1 4411   4.684   3.213   1.676
 1410SOL    HW2 4412   4.714   3.055   1.701
 1411SOL     OW 4413   2.828   4.784   3.714
 1411SOL    HW1 4414   2.738   4.824   3.731
 1411SOL    HW2 4415   2.846   4.785   3.616
 1412SOL     OW 4416   2.322   0.378   4.401
 1412SOL    HW1 4417   2.396   0.415   4.345
 1412SOL    HW2 4418   2.321   0.278   4.392
 1413SOL     OW 4419   2.900   2.567   1.385
 1413SOL    HW1 4420   2.857   2.502   1.448
 1413SOL    HW2 4421   2.856   2.560   1.296
 1414SOL     OW 4422   0.355   1.242   2.519
 1414SOL    HW1 4423   0.407   1.317   2.559
 1414SOL    HW2 4424   0.335   1.173   2.589
 1415SOL     OW 4425   3.186   3.605   3.543
 1415SOL    HW1 4426   3.204   3.657   3.460
 1415SOL    HW2 4427   3.129   3.660   3.604
 1416SOL     OW 4428   1.147   1.931   0.798
 1416SOL    HW1 4429   1.246   1.939   0.788
 1416SOL    HW2 4430   1.112   1.870   0.727
 1417SOL     OW 4431   2.178   4.416   1.989
 1417SOL    HW1 4432   2.097   4.429   1.931
 1417SOL    HW2 4433   2.212   4.505   2.017
 1418SOL     OW 4434   3.208   1.723   3.934
 1418SOL    HW1 4435   3.209   1.648   3.869
 1418SOL    HW2 4436   3.299   1.766   3.937
 1419SOL     OW 4437   1.732   4.152   1.741
 1419SOL    HW1 4438   1.742   4.092   1.662
 1419SOL    HW2 4439   1.822   4.184   1.770
 1420SOL     OW 4440   3.423   4.010   1.796
 1420SOL    HW1 4441   3.480   4.075   1.846
 1420SOL    HW2 4442   3.431   4.028   1.698
 1421SOL     OW 4443   3.189   1.384   1.522
 1421SOL    HW1 4444   3.125   1.316   1.487
 1421SOL    HW2 4445   3.279   1.370   1.479
 1422SOL     OW 4446   4.235   4.055   2.131
 1422SOL    HW1 4447   4.331   4.066   2.105
 1422SOL    HW2 4448   4.217   3.958   2.150
 1423SOL     OW 4449   2.225   2.140   4.623
 1423SOL    HW1 4450   2.197   2.235   4.604
 1423SOL    HW2 4451   2.321   2.128   4.597
 1424SOL     OW 4452   0.970   2.447   4.768
 1424SOL    HW1 4453   0.926   2.436   4.857
 1424SOL    HW2 4454   1.053   2.503   4.779
 1425SOL     OW 4455   3.043   1.430   2.139
 1425SOL    HW1 4456   3.008   1.374   2.064
 1425SOL    HW2 4457   3.079   1.515   2.102
 1426SOL     OW 4458   3.503   0.621   2.138
 1426SOL    HW1 4459   3.496   0.611   2.237
 1426SOL    HW2 4460   3.446   0.698   2.109
 1427SOL     OW 4461   4.031   0.958   4.807
 1427SOL    HW1 4462   3.958   1.025   4.789
 1427SOL    HW2 4463   4.118   1.006   4.812
 1428SOL     OW 4464   4.315   3.071   1.117
 1428SOL    HW1 4465   4.275   3.015   1.189
 1428SOL    HW2 4466   4.411   3.047   1.105
 1429SOL     OW 4467   3.049   4.761   1.916
 1429SOL    HW1 4468   3.103   4.783   1.835
 1429SOL    HW2 4469   2.994   4.679   1.897
 1430SOL     OW 4470   3.058   3.370   4.602
 1430SOL    HW1 4471   3.143   3.402   4.644
 1430SOL    HW2 4472   3.078   3.335   4.510
 1431SOL     OW 4473   1.437   4.436   0.991
 1431SOL    HW1 4474   1.470   4.417   1.083
 1431SOL    HW2 4475   1.496   4.390   0.925
 1432SOL     OW 4476   1.686   0.858   3.877
 1432SOL    HW1 4477   1.730   0.777   3.915
 1432SOL    HW2 4478   1.652   0.836   3.785
 1433SOL     OW 4479   3.592   4.151   0.634
 1433SOL    HW1 4480   3.579   4.209   0.554
 1433SOL    HW2 4481   3.614   4.058   0.604
 1434SOL     OW 4482   2.292   2.411   0.715
 1434SOL    HW1 4483   2.237   2.330   0.696
 1434SOL    HW2 4484   2.285   2.474   0.637
 1435SOL     OW 4485   2.430   1.487   3.372
 1435SOL    HW1 4486   2.409   1.405   3.425
 1435SOL    HW2 4487   2.382   1.565   3.412
 1436SOL     OW 4488   3.243   3.035   2.391
 1436SOL    HW1 4489   3.285   3.021   2.302
 1436SOL    HW2 4490   3.149   3.003   2.389
 1437SOL     OW 4491   1.350   0.685   4.456
 1437SOL    HW1 4492   1.275   0.632   4.414
 1437SOL    HW2 4493   1.396   0.738   4.385
 1438SOL     OW 4494   3.318   2.361   4.622
 1438SOL    HW1 4495   3.400   2.394   4.577
 1438SOL    HW2 4496   3.238   2.405   4.583
 1439SOL     OW 4497   1.441   4.625   1.496
 1439SOL    HW1 4498   1.368   4.676   1.542
 1439SOL    HW2 4499   1.526   4.636   1.548
 1440SOL     OW 4500   0.664   1.625   4.527
 1440SOL    HW1 4501   0.750   1.647   4.575
 1440SOL    HW2 4502   0.632   1.535   4.556
 1441SOL     OW 4503   0.949   3.422   3.516
 1441SOL    HW1 4504   0.946   3.415   3.416
 1441SOL    HW2 4505   0.952   3.330   3.555
 1442SOL     OW 4506   0.373   2.458   0.919
 1442SOL    HW1 4507   0.337   2.513   0.994
 1442SOL    HW2 4508   0.438   2.513   0.866
 1443SOL     OW 4509   4.634   0.951   2.533
 1443SOL    HW1 4510   4.720   0.932   2.581
 1443SOL    HW2 4511   4.561   0.897   2.573
 1444SOL     OW 4512   2.373   2.739   0.213
 1444SOL    HW1 4513   2.343   2.659   0.161
 1444SOL    HW2 4514   2.364   2.720   0.311
 1445SOL     OW 4515   0.267   3.653   2.126
 1445SOL    HW1 4516   0.193   3.601   2.169
 1445SOL    HW2 4517   0.248   3.751   2.137
 1446SOL     OW 4518   4.556   2.154   1.816
 1446SOL    HW1 4519   4.515   2.169   1.906
 1446SOL    HW2 4520   4.633   2.216   1.804
 1447SOL     OW 4521   1.713   3.623   1.067
 1447SOL    HW1 4522   1.621   3.591   1.089
 1447SOL    HW2 4523   1.768   3.546   1.035
 1448SOL     OW 4524   1.096   3.506   0.350
 1448SOL    HW1 4525   1.191   3.504   0.382
 1448SOL    HW2 4526   1.039   3.555   0.415
 1449SOL     OW 4527   2.360   0.914   0.889
 1449SOL    HW1 4528   2.301   0.965   0.826
 1449SOL    HW2 4529   2.375   0.822   0.853
 1450SOL     OW 4530   4.557   2.604   0.304
 1450SOL    HW1 4531   4.549   2.540   0.227
 1450SOL    HW2 4532   4.541   2.697   0.271
 1451SOL     OW 4533   1.068   0.439   1.495
 1451SOL    HW1 4534   1.108   0.422   1.585
 1451SOL    HW2 4535   1.024   0.355   1.463
 1452SOL     OW 4536   4.057   0.489   3.453
 1452SOL    HW1 4537   4.090   0.582   3.467
 1452SOL    HW2 4538   3.961   0.491   3.424
 1453SOL     OW 4539   0.542   1.508   0.147
 1453SOL    HW1 4540   0.593   1.447   0.208
 1453SOL    HW2 4541   0.447   1.511   0.177
 1454SOL     OW 4542   1.895   3.707   3.950
 1454SOL    HW1 4543   1.903   3.686   4.048
 1454SOL    HW2 4544   1.948   3.639   3.898
 1455SOL     OW 4545   2.044   3.247   3.106
 1455SOL    HW1 4546   2.032   3.151   3.079
 1455SOL    HW2 4547   1.967   3.300   3.072
 1456SOL     OW 4548   4.394   2.450   2.731
 1456SOL    HW1 4549   4.350   2.360   2.729
 1456SOL    HW2 4550   4.493   2.439   2.734
 1457SOL     OW 4551   3.081   3.031   1.334
 1457SOL    HW1 4552   3.008   2.966   1.316
 1457SOL    HW2 4553   3.133   3.002   1.415
 1458SOL     OW 4554   3.016   0.614   4.118
 1458SOL    HW1 4555   3.052   0.698   4.076
 1458SOL    HW2 4556   3.078   0.586   4.191
 1459SOL     OW 4557   2.579   2.620   4.289
 1459SOL    HW1 4558   2.535   2.538   4.252
 1459SOL    HW2 4559   2.648   2.652   4.223
 1460SOL     OW 4560   1.777   3.170   1.909
 1460SOL    HW1 4561   1.804   3.248   1.966
 1460SOL    HW2 4562   1.683   3.183   1.878
 1461SOL     OW 4563   2.314   4.027   4.846
 1461SOL    HW1 4564   2.244   3.991   4.784
 1461SOL    HW2 4565   2.367   4.097   4.799
 1462SOL     OW 4566   3.022   2.634   3.625
 1462SOL    HW1 4567   3.041   2.703   3.555
 1462SOL    HW2 4568   2.931   2.650   3.663
 1463SOL     OW 4569   1.689   1.467   3.364
 1463SOL    HW1 4570   1.724   1.377   3.335
 1463SOL    HW2 4571   1.628   1.454   3.442
 1464SOL     OW 4572   4.478   0.248   2.843
 1464SOL    HW1 4573   4.516   0.178   2.783
 1464SOL    HW2 4574   4.551   0.286   2.900
 1465SOL     OW 4575   1.098   3.000   3.212
 1465SOL    HW1 4576   1.117   2.974   3.307
 1465SOL    HW2 4577   1.058   2.922   3.164
 1466SOL     OW 4578   4.152   2.318   1.748
 1466SOL    HW1 4579   4.121   2.246   1.685
 1466SOL    HW2 4580   4.116   2.406   1.716
 1467SOL     OW 4581   4.721   0.915   0.859
 1467SOL    HW1 4582   4.805   0.864   0.878
 1467SOL    HW2 4583   4.658   0.857   0.808
 1468SOL     OW 4584   4.694   4.474   1.464
 1468SOL    HW1 4585   4.689   4.374   1.461
 1468SOL    HW2 4586   4.771   4.501   1.523
 1469SOL     OW 4587   4.817   2.103   0.923
 1469SOL    HW1 4588   4.826   2.198   0.893
 1469SOL    HW2 4589   4.789   2.101   1.019
 1470SOL     OW 4590   0.953   1.653   2.730
 1470SOL    HW1 4591   0.879   1.710   2.694
 1470SOL    HW2 4592   0.997   1.700   2.806
 1471SOL     OW 4593   2.456   3.803   3.300
 1471SOL    HW1 4594   2.403   3.886   3.316
 1471SOL    HW2 4595   2.398   3.735   3.253
 1472SOL     OW 4596   3.728   0.456   4.738
 1472SOL    HW1 4597   3.818   0.439   4.779
 1472SOL    HW2 4598   3.708   0.553   4.742
 1473SOL     OW 4599   1.743   2.584   0.922
 1473SOL    HW1 4600   1.825   2.526   0.914
 1473SOL    HW2 4601   1.693   2.558   1.004
 1474SOL     OW 4602   4.161   1.828   1.287
 1474SOL    HW1 4603   4.227   1.754   1.272
 1474SOL    HW2 4604   4.072   1.801   1.250
 1475SOL     OW 4605   1.214   0.693   3.201
 1475SOL    HW1 4606   1.126   0.719   3.161
 1475SOL    HW2 4607   1.221   0.593   3.203
 1476SOL     OW 4608   0.624   3.468   1.682
 1476SOL    HW1 4609   0.565   3.444   1.759
 1476SOL    HW2 4610   0.627   3.568   1.673
 1477SOL     OW 4611   4.206   0.710   2.541
 1477SOL    HW1 4612   4.247   0.648   2.474
 1477SOL    HW2 4613   4.277   0.769   2.578
 1478SOL     OW 4614   0.375   0.543   3.521
 1478SOL    HW1 4615   0.435   0.491   3.460
 1478SOL    HW2 4616   0.318   0.479   3.573
 1479SOL     OW 4617   0.345   4.791   4.229
 1479SOL    HW1 4618   0.348   4.691   4.236
 1479SOL    HW2 4619   0.335   4.817   4.133
 1480SOL     OW 4620   4.762   0.749   3.852
 1480SOL    HW1 4621   4.849   0.704   3.871
 1480SOL    HW2 4622   4.690   0.707   3.907
 1481SOL     OW 4623   4.342   3.329   3.256
 1481SOL    HW1 4624   4.269   3.272   3.294
 1481SOL    HW2 4625   4.415   3.338   3.324
 1482SOL     OW 4626   1.891   2.399   2.422
 1482SOL    HW1 4627   1.808   2.353   2.392
 1482SOL    HW2 4628   1.892   2.493   2.387
 1483SOL     OW 4629   1.115   1.371   1.435
 1483SOL    HW1 4630   1.094   1.274   1.447
 1483SOL    HW2 4631   1.032   1.420   1.411
 1484SOL     OW 4632   1.116   3.624   1.635
 1484SOL    HW1 4633   1.211   3.651   1.648
 1484SOL    HW2 4634   1.111   3.525   1.621
 1485SOL     OW 4635   2.120   4.670   1.824
 1485SOL    HW1 4636   2.209   4.698   1.860
 1485SOL    HW2 4637   2.087   4.739   1.760
 1486SOL     OW 4638   4.211   4.788   1.687
 1486SOL    HW1 4639   4.309   4.805   1.682
 1486SOL    HW2 4640   4.184   4.727   1.612
 1487SOL     OW 4641   3.915   1.688   1.979
 1487SOL    HW1 4642   3.881   1.770   2.024
 1487SOL    HW2 4643   4.005   1.665   2.015
 1488SOL     OW 4644   1.224   0.529   0.280
 1488SOL    HW1 4645   1.291   0.462   0.249
 1488SOL    HW2 4646   1.213   0.599   0.209
 1489SOL     OW 4647   3.332   3.324   4.514
 1489SOL    HW1 4648   3.350   3.226   4.514
 1489SOL    HW2 4649   3.384   3.367   4.440
 1490SOL     OW 4650   2.390   4.324   3.031
 1490SOL    HW1 4651   2.396   4.423   3.037
 1490SOL    HW2 4652   2.479   4.288   3.003
 1491SOL     OW 4653   0.756   0.559   2.180
 1491SOL    HW1 4654   0.681   0.504   2.143
 1491SOL    HW2 4655   0.800   0.609   2.106
 1492SOL     OW 4656   3.322   3.519   1.352
 1492SOL    HW1 4657   3.276   3.479   1.273
 1492SOL    HW2 4658   3.354   3.446   1.413
 1493SOL     OW 4659   2.096   3.483   2.745
 1493SOL    HW1 4660   2.110   3.536   2.662
 1493SOL    HW2 4661   2.001   3.451   2.747
 1494SOL     OW 4662   3.947   2.877   0.896
 1494SOL    HW1 4663   3.974   2.828   0.813
 1494SOL    HW2 4664   4.011   2.855   0.969
 1495SOL     OW 4665   0.370   1.689   4.282
 1495SOL    HW1 4666   0.282   1.641   4.289
 1495SOL    HW2 4667   0.443   1.626   4.310
 1496SOL     OW 4668   2.730   4.408   1.710
 1496SOL    HW1 4669   2.774   4.495   1.730
 1496SOL    HW2 4670   2.762   4.339   1.774
 1497SOL     OW 4671   4.672   0.611   0.560
 1497SOL    HW1 4672   4.727   0.634   0.480
 1497SOL    HW2 4673   4.591   0.670   0.562
 1498SOL     OW 4674   0.435   3.013   3.674
 1498SOL    HW1 4675   0.512   3.023   3.738
 1498SOL    HW2 4676   0.470   3.012   3.580
 1499SOL     OW 4677   2.552   2.079   3.099
 1499SOL    HW1 4678   2.550   1.983   3.070
 1499SOL    HW2 4679   2.641   2.118   3.079
 1500SOL     OW 4680   4.791   1.680   1.868
 1500SOL    HW1 4681   4.845   1.696   1.785
 1500SOL    HW2 4682   4.697   1.707   1.851
 1501SOL     OW 4683   4.628   1.072   3.966
 1501SOL    HW1 4684   4.648   1.162   3.927
 1501SOL    HW2 4685   4.598   1.011   3.892
 1502SOL     OW 4686   0.748   2.902   3.116
 1502SOL    HW1 4687   0.788   2.813   3.094
 1502SOL    HW2 4688   0.705   2.897   3.206
 1503SOL     OW 4689   1.267   0.896   1.035
 1503SOL    HW1 4690   1.298   0.801   1.042
 1503SOL    HW2 4691   1.315   0.941   0.960
 1504SOL     OW 4692   4.391   3.777   1.761
 1504SOL    HW1 4693   4.363   3.687   1.796
 1504SOL    HW2 4694   4.482   3.798   1.795
 1505SOL     OW 4695   4.612   3.023   1.240
 1505SOL    HW1 4696   4.574   3.019   1.332
 1505SOL    HW2 4697   4.679   2.949   1.228
 1506SOL     OW 4698   2.989   1.555   1.200
 1506SOL    HW1 4699   2.910   1.602   1.162
 1506SOL    HW2 4700   3.053   1.623   1.237
 1507SOL     OW 4701   4.568   0.451   3.975
 1507SOL    HW1 4702   4.559   0.471   4.073
 1507SOL    HW2 4703   4.494   0.497   3.926
 1508SOL     OW 4704   2.543   2.629   4.700
 1508SOL    HW1 4705   2.596   2.635   4.615
 1508SOL    HW2 4706   2.541   2.719   4.743
 1509SOL     OW 4707   0.582   3.906   4.377
 1509SOL    HW1 4708   0.513   3.837   4.355
 1509SOL    HW2 4709   0.579   3.924   4.475
 1510SOL     OW 4710   2.359   2.600   3.971
 1510SOL    HW1 4711   2.341   2.647   3.884
 1510SOL    HW2 4712   2.280   2.545   3.995
   5.00000   5.00000   5.00000
