Task 3 initial system converted from PackMol PDB
 4712
    1CLSA    H1    1   0.999   2.226   0.549
    1CLSA    C1    2   1.087   2.216   0.615
    1CLSA    C2    3   1.328   2.295   0.744
    1CLSA    C3    4   1.081   2.320   0.729
    1CLSA    C4    5   1.213   2.229   0.530
    1CLSA    C5    6   1.339   2.207   0.615
    1CLSA    H2    7   1.418   2.359   0.751
    1CLSA    H3    8   1.081   2.115   0.656
    1CLSA    H4    9   1.217   2.329   0.484
    1CLSA    H5   10   1.338   2.102   0.649
    1CLSA    H6   11   1.016   2.402   0.693
    1CLSA    O1   12   1.205   2.129   0.430
    1CLSA    H7   13   1.292   2.131   0.386
    1CLSA    O2   14   1.461   2.231   0.540
    1CLSA    H8   15   1.538   2.221   0.602
    1CLSA    O3   16   1.212   2.380   0.745
    1CLSA    C6   17   1.022   2.272   0.864
    1CLSA    H9   18   1.036   2.352   0.938
    1CLSA   H10   19   0.913   2.257   0.854
    1CLSA    O4   20   1.079   2.150   0.913
    1CLSA   H11   21   1.179   2.162   0.892
    1CLSA    O5   22   1.319   2.209   0.857
    2CLSB    C7   23   1.412   2.241   0.961
    2CLSB    C8   24   1.433   2.299   1.201
    2CLSB    C9   25   1.331   2.262   1.090
    2CLSB   C10   26   1.520   2.129   0.976
    2CLSB   C11   27   1.549   2.196   1.208
    2CLSB   H12   28   1.267   2.349   1.076
    2CLSB   H13   29   1.473   2.399   1.184
    2CLSB   H14   30   1.469   2.036   1.010
    2CLSB   H15   31   1.505   2.104   1.251
    2CLSB   H16   32   1.465   2.335   0.939
    2CLSB    O6   33   1.613   2.171   1.080
    2CLSB   C12   34   1.596   2.097   0.846
    2CLSB   H17   35   1.683   2.035   0.870
    2CLSB   H18   36   1.531   2.036   0.783
    2CLSB    O7   37   1.636   2.214   0.774
    2CLSB   H19   38   1.719   2.244   0.817
    2CLSB    O8   39   1.360   2.294   1.320
    2CLSB   H20   40   1.287   2.232   1.289
    2CLSB    O9   41   1.252   2.145   1.131
    2CLSB   H21   42   1.176   2.130   1.068
    2CLSB   O10   43   1.650   2.250   1.294
    3CLSA   C13   44   1.738   2.154   1.355
    3CLSA   C14   45   1.995   2.144   1.498
    3CLSA   C15   46   1.756   2.199   1.502
    3CLSA   C16   47   1.871   2.159   1.275
    3CLSA   C17   48   1.988   2.095   1.351
    3CLSA   H22   49   2.026   2.249   1.504
    3CLSA   H23   50   1.697   2.053   1.351
    3CLSA   H24   51   1.896   2.266   1.260
    3CLSA   H25   52   1.975   1.987   1.352
    3CLSA   H26   53   1.780   2.307   1.503
    3CLSA   O11   54   1.862   2.095   1.144
    3CLSA   H27   55   1.774   2.122   1.105
    3CLSA   O12   56   2.106   2.128   1.275
    3CLSA   H28   57   2.087   2.100   1.183
    3CLSA   O13   58   1.866   2.125   1.560
    3CLSA   C18   59   1.630   2.179   1.590
    3CLSA   H29   60   1.654   2.110   1.672
    3CLSA   H30   61   1.601   2.273   1.634
    3CLSA   O14   62   1.520   2.124   1.516
    3CLSA   H31   63   1.460   2.199   1.495
    3CLSA   O15   64   2.083   2.058   1.568
    4CLSB   C19   65   2.147   2.118   1.682
    4CLSB   C20   66   2.116   2.168   1.927
    4CLSB   C21   67   2.043   2.129   1.798
    4CLSB   C22   68   2.267   2.025   1.717
    4CLSB   C23   69   2.236   2.073   1.954
    4CLSB   H32   70   1.977   2.214   1.774
    4CLSB   H33   71   2.151   2.272   1.922
    4CLSB   H34   72   2.231   1.921   1.726
    4CLSB   H35   73   2.192   1.975   1.980
    4CLSB   H36   74   2.185   2.217   1.657
    4CLSB   O16   75   2.326   2.066   1.842
    4CLSB   C24   76   2.377   2.030   1.608
    4CLSB   H37   77   2.453   1.955   1.631
    4CLSB   H38   78   2.333   2.006   1.511
    4CLSB   O17   79   2.439   2.159   1.604
    4CLSB   H39   80   2.497   2.167   1.682
    4CLSB   O18   81   2.019   2.150   2.028
    4CLSB   H40   82   1.961   2.086   1.980
    4CLSB   O19   83   1.966   2.007   1.815
    4CLSB   H41   84   1.922   1.988   1.727
    4CLSB   O20   85   2.311   2.127   2.063
    5CLSA   C25   86   2.405   2.037   2.126
    5CLSA   C26   87   2.644   2.043   2.297
    5CLSA   C27   88   2.401   2.072   2.277
    5CLSA   C28   89   2.546   2.064   2.061
    5CLSA   C29   90   2.660   2.010   2.145
    5CLSA   H42   91   2.663   2.150   2.315
    5CLSA   H43   92   2.377   1.931   2.110
    5CLSA   H44   93   2.557   2.174   2.058
    5CLSA   H45   94   2.659   1.898   2.139
    5CLSA   H46   95   2.411   2.181   2.287
    5CLSA   O21   96   2.561   2.008   1.930
    5CLSA   H47   97   2.476   2.024   1.880
    5CLSA   O22   98   2.781   2.060   2.090
    5CLSA   H48   99   2.774   2.038   1.994
    5CLSA   O23  100   2.513   2.008   2.344
    5CLSA   C30  101   2.270   2.030   2.346
    5CLSA   H49  102   2.292   1.955   2.423
    5CLSA   H50  103   2.226   2.116   2.399
    5CLSA   O24  104   2.173   1.975   2.257
    5CLSA   H51  105   2.111   2.047   2.234
    5CLSA   O25  106   2.732   1.960   2.367
    6CLSB   C31  107   2.798   2.022   2.475
    6CLSB   C32  108   2.774   2.062   2.722
    6CLSB   C33  109   2.697   2.025   2.594
    6CLSB   C34  110   2.924   1.937   2.503
    6CLSB   C35  111   2.898   1.974   2.744
    6CLSB   H52  112   2.626   2.106   2.576
    6CLSB   H53  113   2.802   2.168   2.721
    6CLSB   H54  114   2.895   1.831   2.509
    6CLSB   H55  115   2.862   1.872   2.766
    6CLSB   H56  116   2.828   2.125   2.451
    6CLSB   O26  117   2.985   1.977   2.628
    6CLSB   C36  118   3.029   1.954   2.392
    6CLSB   H57  119   3.110   1.882   2.404
    6CLSB   H58  120   2.983   1.933   2.294
    6CLSB   O27  121   3.084   2.086   2.391
    6CLSB   H59  122   3.140   2.094   2.471
    6CLSB   O28  123   2.681   2.035   2.827
    6CLSB   H60  124   2.624   1.972   2.778
    6CLSB   O29  125   2.626   1.899   2.610
    6CLSB   H61  126   2.586   1.878   2.522
    6CLSB   O30  127   2.976   2.027   2.850
    7CLSA   C37  128   3.076   1.940   2.904
    7CLSA   C38  129   3.325   1.952   3.065
    7CLSA   C39  130   3.080   1.973   3.056
    7CLSA   C40  131   3.212   1.971   2.834
    7CLSA   C41  132   3.334   1.919   2.912
    7CLSA   H62  133   3.341   2.059   3.085
    7CLSA   H63  134   3.050   1.833   2.893
    7CLSA   H64  135   3.221   2.079   2.827
    7CLSA   H65  136   3.338   1.810   2.904
    7CLSA   H66  137   3.088   2.081   3.068
    7CLSA   O31  138   3.224   1.913   2.703
    7CLSA   H67  139   3.136   1.930   2.656
    7CLSA   O32  140   3.449   1.978   2.848
    7CLSA   H68  141   3.439   1.953   2.755
    7CLSA   O33  142   3.197   1.910   3.116
    7CLSA   C42  143   2.954   1.928   3.135
    7CLSA   H69  144   2.983   1.856   3.212
    7CLSA   H70  145   2.908   2.015   3.184
    7CLSA   O34  146   2.856   1.865   3.050
    7CLSA   H71  147   2.788   1.933   3.028
    7CLSA   O35  148   3.419   1.869   3.129
    8CLSB   C43  149   3.483   1.930   3.242
    8CLSB   C44  150   3.452   1.984   3.486
    8CLSB   C45  151   3.379   1.948   3.356
    8CLSB   C46  152   3.599   1.834   3.281
    8CLSB   C47  153   3.566   1.885   3.516
    8CLSB   H72  154   3.316   2.034   3.331
    8CLSB   H73  155   3.490   2.087   3.481
    8CLSB   H74  156   3.558   1.733   3.291
    8CLSB   H75  157   3.518   1.789   3.541
    8CLSB   H76  158   3.524   2.028   3.214
    8CLSB   O36  159   3.659   1.875   3.405
    8CLSB   C48  160   3.710   1.833   3.173
    8CLSB   H77  161   3.783   1.753   3.198
    8CLSB   H78  162   3.667   1.808   3.075
    8CLSB   O37  163   3.778   1.958   3.167
    8CLSB   H79  164   3.829   1.967   3.248
    8CLSB   O38  165   3.352   1.973   3.586
    8CLSB   H80  166   3.292   1.911   3.536
    8CLSB   O39  167   3.295   1.831   3.373
    8CLSB   H81  168   3.251   1.812   3.284
    8CLSB   O40  169   3.643   1.936   3.628
    9CLSA   C49  170   3.727   1.840   3.696
    9CLSA   C50  171   3.964   1.830   3.872
    9CLSA   C51  172   3.723   1.879   3.844
    9CLSA   C52  173   3.871   1.853   3.635
    9CLSA   C53  174   3.976   1.783   3.723
    9CLSA   H82  175   3.992   1.936   3.881
    9CLSA   H83  176   3.692   1.737   3.683
    9CLSA   H84  177   3.895   1.960   3.634
    9CLSA   H85  178   3.957   1.675   3.721
    9CLSA   H86  179   3.739   1.987   3.852
    9CLSA   O41  180   3.885   1.796   3.502
    9CLSA   H87  181   3.804   1.822   3.450
    9CLSA   O42  182   4.103   1.812   3.661
    9CLSA   H88  183   4.085   1.796   3.566
    9CLSA   O43  184   3.828   1.809   3.917
    9CLSA   C54  185   3.585   1.847   3.911
    9CLSA   H89  186   3.601   1.771   3.989
    9CLSA   H90  187   3.548   1.937   3.960
    9CLSA   O44  188   3.488   1.798   3.818
    9CLSA   H91  189   3.434   1.875   3.792
    9CLSA   O45  190   4.046   1.744   3.951
   10CLSB   C55  191   4.094   1.805   4.072
   10CLSB   C56  192   4.157   1.730   4.310
   10CLSB   C57  193   4.074   1.698   4.183
   10CLSB   C58  194   4.244   1.839   4.049
   10CLSB   C59  195   4.304   1.765   4.273
   10CLSB   H92  196   3.967   1.699   4.211
   10CLSB   H93  197   4.110   1.815   4.364
   10CLSB   H94  198   4.293   1.751   4.006
   10CLSB   H95  199   4.353   1.675   4.234
   10CLSB   H96  200   4.038   1.895   4.099
   10CLSB   O46  201   4.306   1.872   4.176
   10CLSB   C60  202   4.265   1.958   3.953
   10CLSB   H97  203   4.373   1.974   3.941
   10CLSB   H98  204   4.225   1.935   3.856
   10CLSB   O47  205   4.204   2.076   4.008
   10CLSB   H99  206   4.233   2.078   4.101
   10CLSB   O48  207   4.147   1.611   4.388
   10CLSB  H100  208   4.137   1.545   4.316
   10CLSB   O49  209   4.110   1.569   4.132
   10CLSB  H101  210   4.085   1.579   4.035
   10CLSB   O50  211   4.377   1.820   4.380
   10CLSB  H102  212   4.385   1.914   4.355
   11SOL     OW  213   3.833   0.988   2.324
   11SOL    HW1  214   3.797   0.906   2.280
   11SOL    HW2  215   3.759   1.054   2.337
   12SOL     OW  216   3.516   1.614   4.706
   12SOL    HW1  217   3.457   1.557   4.764
   12SOL    HW2  218   3.458   1.664   4.641
   13SOL     OW  219   0.215   4.653   4.509
   13SOL    HW1  220   0.265   4.703   4.580
   13SOL    HW2  221   0.166   4.718   4.452
   14SOL     OW  222   1.659   4.649   0.431
   14SOL    HW1  223   1.625   4.557   0.413
   14SOL    HW2  224   1.756   4.645   0.454
   15SOL     OW  225   2.461   4.327   1.630
   15SOL    HW1  226   2.522   4.328   1.550
   15SOL    HW2  227   2.472   4.412   1.680
   16SOL     OW  228   4.683   3.344   3.602
   16SOL    HW1  229   4.731   3.270   3.649
   16SOL    HW2  230   4.747   3.418   3.582
   17SOL     OW  231   2.804   2.612   4.686
   17SOL    HW1  232   2.788   2.684   4.753
   17SOL    HW2  233   2.824   2.527   4.735
   18SOL     OW  234   4.620   4.403   4.317
   18SOL    HW1  235   4.620   4.378   4.414
   18SOL    HW2  236   4.546   4.467   4.300
   19SOL     OW  237   0.562   2.113   2.234
   19SOL    HW1  238   0.654   2.084   2.261
   19SOL    HW2  239   0.556   2.213   2.244
   20SOL     OW  240   1.625   2.276   0.321
   20SOL    HW1  241   1.589   2.368   0.307
   20SOL    HW2  242   1.556   2.208   0.296
   21SOL     OW  243   1.838   3.406   0.803
   21SOL    HW1  244   1.932   3.439   0.807
   21SOL    HW2  245   1.779   3.482   0.775
   22SOL     OW  246   4.390   3.247   1.833
   22SOL    HW1  247   4.351   3.157   1.810
   22SOL    HW2  248   4.316   3.310   1.855
   23SOL     OW  249   1.547   3.489   4.752
   23SOL    HW1  250   1.568   3.582   4.784
   23SOL    HW2  251   1.630   3.434   4.756
   24SOL     OW  252   1.184   0.773   3.805
   24SOL    HW1  253   1.109   0.812   3.752
   24SOL    HW2  254   1.150   0.698   3.862
   25SOL     OW  255   3.292   2.780   0.214
   25SOL    HW1  256   3.203   2.818   0.190
   25SOL    HW2  257   3.354   2.854   0.237
   26SOL     OW  258   3.250   1.310   2.153
   26SOL    HW1  259   3.266   1.215   2.179
   26SOL    HW2  260   3.305   1.371   2.210
   27SOL     OW  261   1.582   1.244   3.591
   27SOL    HW1  262   1.615   1.232   3.497
   27SOL    HW2  263   1.579   1.155   3.637
   28SOL     OW  264   4.553   2.711   2.089
   28SOL    HW1  265   4.513   2.802   2.091
   28SOL    HW2  266   4.642   2.715   2.045
   29SOL     OW  267   4.426   4.245   4.331
   29SOL    HW1  268   4.413   4.261   4.428
   29SOL    HW2  269   4.398   4.151   4.309
   30SOL     OW  270   2.777   2.487   3.740
   30SOL    HW1  271   2.841   2.479   3.816
   30SOL    HW2  272   2.691   2.442   3.765
   31SOL     OW  273   0.420   2.995   3.231
   31SOL    HW1  274   0.481   2.943   3.172
   31SOL    HW2  275   0.394   2.939   3.310
   32SOL     OW  276   3.301   0.639   0.695
   32SOL    HW1  277   3.273   0.544   0.709
   32SOL    HW2  278   3.219   0.697   0.686
   33SOL     OW  279   0.499   0.196   0.846
   33SOL    HW1  280   0.503   0.280   0.899
   33SOL    HW2  281   0.549   0.208   0.760
   34SOL     OW  282   3.012   3.619   2.366
   34SOL    HW1  283   3.019   3.660   2.457
   34SOL    HW2  284   2.939   3.551   2.367
   35SOL     OW  285   0.255   4.488   4.194
   35SOL    HW1  286   0.259   4.475   4.293
   35SOL    HW2  287   0.347   4.490   4.157
   36SOL     OW  288   3.031   2.122   4.099
   36SOL    HW1  289   2.975   2.040   4.111
   36SOL    HW2  290   2.977   2.202   4.124
   37SOL     OW  291   1.206   4.407   1.673
   37SOL    HW1  292   1.305   4.418   1.667
   37SOL    HW2  293   1.184   4.310   1.679
   38SOL     OW  294   2.006   4.558   0.308
   38SOL    HW1  295   2.021   4.515   0.219
   38SOL    HW2  296   1.955   4.495   0.366
   39SOL     OW  297   3.205   0.564   0.193
   39SOL    HW1  298   3.274   0.506   0.236
   39SOL    HW2  299   3.136   0.507   0.149
   40SOL     OW  300   0.328   0.577   2.503
   40SOL    HW1  301   0.388   0.567   2.423
   40SOL    HW2  302   0.233   0.568   2.473
   41SOL     OW  303   1.371   0.424   1.271
   41SOL    HW1  304   1.323   0.510   1.285
   41SOL    HW2  305   1.336   0.355   1.334
   42SOL     OW  306   2.400   2.723   2.816
   42SOL    HW1  307   2.467   2.776   2.763
   42SOL    HW2  308   2.378   2.773   2.900
   43SOL     OW  309   1.624   1.647   4.272
   43SOL    HW1  310   1.589   1.740   4.268
   43SOL    HW2  311   1.546   1.583   4.269
   44SOL     OW  312   0.274   4.508   3.868
   44SOL    HW1  313   0.339   4.577   3.900
   44SOL    HW2  314   0.184   4.549   3.859
   45SOL     OW  315   3.844   0.722   3.881
   45SOL    HW1  316   3.807   0.804   3.925
   45SOL    HW2  317   3.879   0.746   3.791
   46SOL     OW  318   2.017   0.244   0.274
   46SOL    HW1  319   1.994   0.339   0.296
   46SOL    HW2  320   1.945   0.206   0.216
   47SOL     OW  321   3.055   2.248   1.206
   47SOL    HW1  322   3.083   2.336   1.167
   47SOL    HW2  323   3.010   2.193   1.136
   48SOL     OW  324   2.852   2.991   1.990
   48SOL    HW1  325   2.759   3.020   1.967
   48SOL    HW2  326   2.901   3.069   2.030
   49SOL     OW  327   0.172   0.707   4.306
   49SOL    HW1  328   0.216   0.794   4.285
   49SOL    HW2  329   0.241   0.635   4.309
   50SOL     OW  330   3.007   4.106   2.316
   50SOL    HW1  331   3.007   4.043   2.393
   50SOL    HW2  332   2.979   4.058   2.233
   51SOL     OW  333   1.087   4.482   1.423
   51SOL    HW1  334   1.180   4.449   1.405
   51SOL    HW2  335   1.078   4.503   1.521
   52SOL     OW  336   2.191   2.406   0.409
   52SOL    HW1  337   2.280   2.451   0.399
   52SOL    HW2  338   2.200   2.310   0.385
   53SOL     OW  339   1.444   1.328   0.802
   53SOL    HW1  340   1.451   1.230   0.819
   53SOL    HW2  341   1.355   1.348   0.761
   54SOL     OW  342   4.359   0.872   3.815
   54SOL    HW1  343   4.271   0.889   3.858
   54SOL    HW2  344   4.350   0.882   3.715
   55SOL     OW  345   0.343   1.098   4.178
   55SOL    HW1  346   0.402   1.067   4.104
   55SOL    HW2  347   0.302   1.186   4.153
   56SOL     OW  348   1.104   2.546   1.752
   56SOL    HW1  349   1.016   2.499   1.750
   56SOL    HW2  350   1.091   2.641   1.724
   57SOL     OW  351   3.304   0.747   3.437
   57SOL    HW1  352   3.299   0.649   3.455
   57SOL    HW2  353   3.391   0.768   3.393
   58SOL     OW  354   4.351   3.061   2.098
   58SOL    HW1  355   4.443   3.052   2.059
   58SOL    HW2  356   4.355   3.122   2.177
   59SOL     OW  357   2.952   2.209   1.583
   59SOL    HW1  358   2.981   2.286   1.525
   59SOL    HW2  359   2.969   2.124   1.534
   60SOL     OW  360   0.293   4.240   0.571
   60SOL    HW1  361   0.210   4.197   0.537
   60SOL    HW2  362   0.372   4.183   0.547
   61SOL     OW  363   2.045   2.282   0.644
   61SOL    HW1  364   1.968   2.334   0.605
   61SOL    HW2  365   2.087   2.227   0.572
   62SOL     OW  366   4.423   3.786   0.630
   62SOL    HW1  367   4.439   3.775   0.728
   62SOL    HW2  368   4.485   3.856   0.594
   63SOL     OW  369   2.709   3.700   2.952
   63SOL    HW1  370   2.714   3.618   2.895
   63SOL    HW2  371   2.695   3.673   3.047
   64SOL     OW  372   1.673   1.419   1.997
   64SOL    HW1  373   1.750   1.482   2.005
   64SOL    HW2  374   1.634   1.425   1.905
   65SOL     OW  375   3.931   3.880   0.982
   65SOL    HW1  376   3.916   3.933   0.898
   65SOL    HW2  377   3.846   3.874   1.034
   66SOL     OW  378   4.012   2.878   2.432
   66SOL    HW1  379   3.923   2.836   2.415
   66SOL    HW2  380   4.082   2.807   2.433
   67SOL     OW  381   3.151   0.584   1.488
   67SOL    HW1  382   3.173   0.681   1.494
   67SOL    HW2  383   3.174   0.539   1.575
   68SOL     OW  384   4.784   0.309   2.736
   68SOL    HW1  385   4.848   0.383   2.714
   68SOL    HW2  386   4.827   0.248   2.803
   69SOL     OW  387   3.609   2.088   0.309
   69SOL    HW1  388   3.682   2.139   0.354
   69SOL    HW2  389   3.548   2.153   0.263
   70SOL     OW  390   4.108   1.137   1.957
   70SOL    HW1  391   4.118   1.237   1.948
   70SOL    HW2  392   4.011   1.115   1.964
   71SOL     OW  393   3.928   3.288   4.080
   71SOL    HW1  394   4.016   3.330   4.103
   71SOL    HW2  395   3.923   3.276   3.981
   72SOL     OW  396   2.449   4.721   4.843
   72SOL    HW1  397   2.543   4.687   4.841
   72SOL    HW2  398   2.386   4.643   4.851
   73SOL     OW  399   2.680   4.208   4.685
   73SOL    HW1  400   2.706   4.282   4.746
   73SOL    HW2  401   2.762   4.168   4.644
   74SOL     OW  402   4.465   4.384   2.712
   74SOL    HW1  403   4.414   4.440   2.776
   74SOL    HW2  404   4.403   4.349   2.642
   75SOL     OW  405   3.621   2.497   1.242
   75SOL    HW1  406   3.573   2.438   1.177
   75SOL    HW2  407   3.566   2.578   1.261
   76SOL     OW  408   0.224   4.391   2.527
   76SOL    HW1  409   0.151   4.419   2.590
   76SOL    HW2  410   0.274   4.314   2.568
   77SOL     OW  411   0.766   4.690   0.447
   77SOL    HW1  412   0.757   4.606   0.500
   77SOL    HW2  413   0.685   4.746   0.460
   78SOL     OW  414   0.966   0.199   1.082
   78SOL    HW1  415   0.877   0.246   1.084
   78SOL    HW2  416   1.038   0.265   1.103
   79SOL     OW  417   4.100   1.293   1.236
   79SOL    HW1  418   4.172   1.361   1.246
   79SOL    HW2  419   4.017   1.337   1.202
   80SOL     OW  420   1.883   1.727   2.128
   80SOL    HW1  421   1.807   1.673   2.093
   80SOL    HW2  422   1.944   1.669   2.182
   81SOL     OW  423   3.753   1.764   0.648
   81SOL    HW1  424   3.795   1.696   0.708
   81SOL    HW2  425   3.815   1.841   0.636
   82SOL     OW  426   2.977   4.303   1.385
   82SOL    HW1  427   3.010   4.396   1.367
   82SOL    HW2  428   3.056   4.241   1.391
   83SOL     OW  429   1.636   0.228   1.014
   83SOL    HW1  430   1.693   0.149   1.037
   83SOL    HW2  431   1.545   0.216   1.054
   84SOL     OW  432   1.329   3.420   4.362
   84SOL    HW1  433   1.269   3.440   4.439
   84SOL    HW2  434   1.411   3.477   4.367
   85SOL     OW  435   3.686   3.595   0.355
   85SOL    HW1  436   3.673   3.496   0.350
   85SOL    HW2  437   3.644   3.631   0.438
   86SOL     OW  438   2.984   4.617   0.378
   86SOL    HW1  439   2.938   4.651   0.296
   86SOL    HW2  440   2.916   4.595   0.447
   87SOL     OW  441   0.497   4.216   3.646
   87SOL    HW1  442   0.406   4.248   3.673
   87SOL    HW2  443   0.489   4.127   3.601
   88SOL     OW  444   3.743   1.361   1.668
   88SOL    HW1  445   3.837   1.391   1.685
   88SOL    HW2  446   3.733   1.266   1.699
   89SOL     OW  447   4.426   2.013   1.366
   89SOL    HW1  448   4.413   2.112   1.366
   89SOL    HW2  449   4.524   1.992   1.369
   90SOL     OW  450   4.266   2.973   3.968
   90SOL    HW1  451   4.185   2.949   4.023
   90SOL    HW2  452   4.259   2.927   3.879
   91SOL     OW  453   0.607   4.256   0.863
   91SOL    HW1  454   0.692   4.256   0.809
   91SOL    HW2  455   0.595   4.166   0.905
   92SOL     OW  456   3.796   0.561   2.589
   92SOL    HW1  457   3.875   0.584   2.645
   92SOL    HW2  458   3.770   0.466   2.606
   93SOL     OW  459   2.210   3.369   2.520
   93SOL    HW1  460   2.291   3.377   2.579
   93SOL    HW2  461   2.214   3.439   2.450
   94SOL     OW  462   2.087   2.046   4.813
   94SOL    HW1  463   2.106   1.954   4.845
   94SOL    HW2  464   2.155   2.109   4.850
   95SOL     OW  465   1.064   3.813   2.427
   95SOL    HW1  466   1.013   3.769   2.501
   95SOL    HW2  467   1.140   3.755   2.400
   96SOL     OW  468   4.036   3.484   2.717
   96SOL    HW1  469   4.013   3.543   2.794
   96SOL    HW2  470   3.967   3.494   2.646
   97SOL     OW  471   2.502   4.099   4.046
   97SOL    HW1  472   2.543   4.176   3.997
   97SOL    HW2  473   2.562   4.019   4.040
   98SOL     OW  474   3.319   2.465   0.725
   98SOL    HW1  475   3.314   2.565   0.728
   98SOL    HW2  476   3.415   2.436   0.730
   99SOL     OW  477   2.516   1.269   2.763
   99SOL    HW1  478   2.469   1.352   2.792
   99SOL    HW2  479   2.453   1.213   2.709
  100SOL     OW  480   0.225   3.050   2.739
  100SOL    HW1  481   0.184   3.142   2.741
  100SOL    HW2  482   0.152   2.982   2.736
  101SOL     OW  483   1.666   0.167   1.340
  101SOL    HW1  484   1.599   0.229   1.298
  101SOL    HW2  485   1.741   0.221   1.378
  102SOL     OW  486   0.898   2.347   2.751
  102SOL    HW1  487   0.972   2.299   2.705
  102SOL    HW2  488   0.933   2.394   2.832
  103SOL     OW  489   0.801   2.022   2.874
  103SOL    HW1  490   0.830   2.019   2.970
  103SOL    HW2  491   0.850   1.952   2.823
  104SOL     OW  492   3.380   2.557   1.726
  104SOL    HW1  493   3.388   2.542   1.824
  104SOL    HW2  494   3.296   2.607   1.707
  105SOL     OW  495   0.746   4.723   3.843
  105SOL    HW1  496   0.830   4.773   3.864
  105SOL    HW2  497   0.770   4.629   3.819
  106SOL     OW  498   3.218   4.514   2.821
  106SOL    HW1  499   3.191   4.564   2.739
  106SOL    HW2  500   3.273   4.575   2.879
  107SOL     OW  501   0.403   4.260   3.957
  107SOL    HW1  502   0.357   4.304   3.880
  107SOL    HW2  503   0.450   4.331   4.011
  108SOL     OW  504   1.598   1.244   3.882
  108SOL    HW1  505   1.583   1.341   3.906
  108SOL    HW2  506   1.524   1.189   3.921
  109SOL     OW  507   2.935   4.676   0.712
  109SOL    HW1  508   2.994   4.713   0.783
  109SOL    HW2  509   2.865   4.619   0.753
  110SOL     OW  510   1.961   2.025   0.890
  110SOL    HW1  511   1.914   2.106   0.925
  110SOL    HW2  512   1.894   1.960   0.854
  111SOL     OW  513   0.266   1.800   0.429
  111SOL    HW1  514   0.168   1.798   0.407
  111SOL    HW2  515   0.313   1.860   0.365
  112SOL     OW  516   0.942   1.371   2.275
  112SOL    HW1  517   0.985   1.461   2.271
  112SOL    HW2  518   1.008   1.302   2.242
  113SOL     OW  519   3.760   0.367   3.734
  113SOL    HW1  520   3.710   0.302   3.677
  113SOL    HW2  521   3.703   0.392   3.813
  114SOL     OW  522   3.004   0.949   2.704
  114SOL    HW1  523   3.051   0.941   2.792
  114SOL    HW2  524   3.071   0.962   2.631
  115SOL     OW  525   3.654   3.774   2.815
  115SOL    HW1  526   3.696   3.683   2.811
  115SOL    HW2  527   3.555   3.764   2.812
  116SOL     OW  528   4.151   1.186   1.475
  116SOL    HW1  529   4.054   1.188   1.499
  116SOL    HW2  530   4.172   1.099   1.431
  117SOL     OW  531   3.526   3.526   3.950
  117SOL    HW1  532   3.444   3.556   3.996
  117SOL    HW2  533   3.508   3.438   3.905
  118SOL     OW  534   3.219   3.234   3.121
  118SOL    HW1  535   3.319   3.239   3.117
  118SOL    HW2  536   3.192   3.150   3.166
  119SOL     OW  537   4.384   4.268   3.383
  119SOL    HW1  538   4.430   4.288   3.296
  119SOL    HW2  539   4.311   4.201   3.366
  120SOL     OW  540   1.745   3.632   0.240
  120SOL    HW1  541   1.825   3.572   0.248
  120SOL    HW2  542   1.772   3.716   0.193
  121SOL     OW  543   0.780   2.000   3.269
  121SOL    HW1  544   0.749   2.071   3.206
  121SOL    HW2  545   0.715   1.924   3.266
  122SOL     OW  546   2.276   3.369   2.075
  122SOL    HW1  547   2.255   3.320   2.159
  122SOL    HW2  548   2.197   3.424   2.048
  123SOL     OW  549   4.444   4.544   3.140
  123SOL    HW1  550   4.454   4.585   3.231
  123SOL    HW2  551   4.409   4.614   3.077
  124SOL     OW  552   1.210   3.148   0.588
  124SOL    HW1  553   1.154   3.073   0.623
  124SOL    HW2  554   1.250   3.197   0.665
  125SOL     OW  555   2.597   4.157   2.055
  125SOL    HW1  556   2.540   4.219   2.001
  125SOL    HW2  557   2.568   4.063   2.038
  126SOL     OW  558   4.699   2.110   3.698
  126SOL    HW1  559   4.607   2.149   3.693
  126SOL    HW2  560   4.695   2.022   3.746
  127SOL     OW  561   3.915   1.314   2.079
  127SOL    HW1  562   3.898   1.309   2.177
  127SOL    HW2  563   3.971   1.394   2.059
  128SOL     OW  564   0.409   1.974   1.683
  128SOL    HW1  565   0.408   1.887   1.634
  128SOL    HW2  566   0.360   1.964   1.770
  129SOL     OW  567   2.563   3.109   2.093
  129SOL    HW1  568   2.515   3.190   2.060
  129SOL    HW2  569   2.509   3.065   2.164
  130SOL     OW  570   0.212   4.753   1.741
  130SOL    HW1  571   0.161   4.733   1.824
  130SOL    HW2  572   0.232   4.851   1.737
  131SOL     OW  573   4.677   3.424   4.499
  131SOL    HW1  574   4.579   3.434   4.485
  131SOL    HW2  575   4.724   3.504   4.462
  132SOL     OW  576   4.598   1.729   3.353
  132SOL    HW1  577   4.685   1.779   3.346
  132SOL    HW2  578   4.536   1.762   3.282
  133SOL     OW  579   4.591   3.828   2.003
  133SOL    HW1  580   4.621   3.733   2.001
  133SOL    HW2  581   4.575   3.856   2.097
  134SOL     OW  582   4.101   0.336   2.743
  134SOL    HW1  583   4.080   0.417   2.797
  134SOL    HW2  584   4.038   0.262   2.768
  135SOL     OW  585   3.843   3.834   2.653
  135SOL    HW1  586   3.877   3.740   2.655
  135SOL    HW2  587   3.906   3.891   2.601
  136SOL     OW  588   0.351   3.436   0.280
  136SOL    HW1  589   0.367   3.524   0.325
  136SOL    HW2  590   0.438   3.388   0.269
  137SOL     OW  591   1.407   1.444   1.424
  137SOL    HW1  592   1.476   1.417   1.357
  137SOL    HW2  593   1.346   1.367   1.442
  138SOL     OW  594   3.195   4.178   4.435
  138SOL    HW1  595   3.285   4.145   4.406
  138SOL    HW2  596   3.207   4.251   4.502
  139SOL     OW  597   2.505   0.614   4.502
  139SOL    HW1  598   2.542   0.683   4.564
  139SOL    HW2  599   2.579   0.551   4.475
  140SOL     OW  600   0.604   4.491   4.730
  140SOL    HW1  601   0.664   4.439   4.790
  140SOL    HW2  602   0.659   4.538   4.660
  141SOL     OW  603   1.517   2.922   2.708
  141SOL    HW1  604   1.592   2.863   2.678
  141SOL    HW2  605   1.437   2.865   2.726
  142SOL     OW  606   2.641   3.083   1.052
  142SOL    HW1  607   2.718   3.032   1.013
  142SOL    HW2  608   2.610   3.036   1.134
  143SOL     OW  609   3.538   1.195   4.757
  143SOL    HW1  610   3.485   1.279   4.762
  143SOL    HW2  611   3.570   1.182   4.663
  144SOL     OW  612   1.318   4.729   4.359
  144SOL    HW1  613   1.288   4.635   4.343
  144SOL    HW2  614   1.416   4.730   4.376
  145SOL     OW  615   1.804   0.441   0.664
  145SOL    HW1  616   1.873   0.503   0.700
  145SOL    HW2  617   1.796   0.362   0.725
  146SOL     OW  618   0.388   0.884   0.821
  146SOL    HW1  619   0.440   0.954   0.868
  146SOL    HW2  620   0.290   0.902   0.833
  147SOL     OW  621   4.673   2.186   4.016
  147SOL    HW1  622   4.646   2.102   4.063
  147SOL    HW2  623   4.592   2.227   3.973
  148SOL     OW  624   2.892   3.782   3.238
  148SOL    HW1  625   2.927   3.706   3.183
  148SOL    HW2  626   2.813   3.751   3.291
  149SOL     OW  627   1.786   0.221   0.442
  149SOL    HW1  628   1.746   0.149   0.499
  149SOL    HW2  629   1.862   0.263   0.492
  150SOL     OW  630   0.577   0.681   0.972
  150SOL    HW1  631   0.539   0.743   0.903
  150SOL    HW2  632   0.640   0.731   1.030
  151SOL     OW  633   4.177   2.642   1.454
  151SOL    HW1  634   4.243   2.695   1.400
  151SOL    HW2  635   4.103   2.702   1.485
  152SOL     OW  636   0.839   3.128   2.548
  152SOL    HW1  637   0.798   3.217   2.568
  152SOL    HW2  638   0.850   3.076   2.633
  153SOL     OW  639   2.580   1.486   3.858
  153SOL    HW1  640   2.541   1.485   3.766
  153SOL    HW2  641   2.671   1.445   3.856
  154SOL     OW  642   4.370   1.667   3.585
  154SOL    HW1  643   4.281   1.713   3.586
  154SOL    HW2  644   4.442   1.734   3.603
  155SOL     OW  645   2.745   3.510   4.253
  155SOL    HW1  646   2.729   3.417   4.223
  155SOL    HW2  647   2.658   3.555   4.271
  156SOL     OW  648   1.945   3.577   3.465
  156SOL    HW1  649   2.007   3.540   3.534
  156SOL    HW2  650   1.994   3.584   3.378
  157SOL     OW  651   1.414   1.930   1.894
  157SOL    HW1  652   1.500   1.966   1.858
  157SOL    HW2  653   1.427   1.904   1.990
  158SOL     OW  654   0.498   4.851   1.086
  158SOL    HW1  655   0.561   4.773   1.081
  158SOL    HW2  656   0.420   4.826   1.143
  159SOL     OW  657   2.148   3.930   3.629
  159SOL    HW1  658   2.196   3.996   3.571
  159SOL    HW2  659   2.202   3.847   3.638
  160SOL     OW  660   3.767   4.745   3.293
  160SOL    HW1  661   3.719   4.673   3.343
  160SOL    HW2  662   3.746   4.833   3.334
  161SOL     OW  663   1.826   4.355   4.560
  161SOL    HW1  664   1.738   4.384   4.523
  161SOL    HW2  665   1.813   4.318   4.652
  162SOL     OW  666   1.604   4.209   2.862
  162SOL    HW1  667   1.557   4.121   2.873
  162SOL    HW2  668   1.536   4.282   2.861
  163SOL     OW  669   1.005   2.224   4.335
  163SOL    HW1  670   1.082   2.215   4.272
  163SOL    HW2  671   1.039   2.217   4.429
  164SOL     OW  672   3.988   1.791   3.318
  164SOL    HW1  673   4.028   1.768   3.229
  164SOL    HW2  674   4.048   1.856   3.365
  165SOL     OW  675   1.155   3.348   2.857
  165SOL    HW1  676   1.131   3.262   2.902
  165SOL    HW2  677   1.212   3.402   2.919
  166SOL     OW  678   3.278   2.996   1.656
  166SOL    HW1  679   3.334   3.056   1.714
  166SOL    HW2  680   3.338   2.934   1.605
  167SOL     OW  681   3.731   3.822   4.724
  167SOL    HW1  682   3.641   3.797   4.761
  167SOL    HW2  683   3.774   3.740   4.686
  168SOL     OW  684   0.427   0.732   2.264
  168SOL    HW1  685   0.404   0.743   2.168
  168SOL    HW2  686   0.527   0.734   2.274
  169SOL     OW  687   3.015   2.181   4.531
  169SOL    HW1  688   2.932   2.186   4.587
  169SOL    HW2  689   2.988   2.170   4.435
  170SOL     OW  690   1.288   0.620   2.018
  170SOL    HW1  691   1.384   0.648   2.028
  170SOL    HW2  692   1.276   0.530   2.061
  171SOL     OW  693   2.155   2.320   2.511
  171SOL    HW1  694   2.235   2.295   2.565
  171SOL    HW2  695   2.074   2.315   2.570
  172SOL     OW  696   4.638   0.250   3.510
  172SOL    HW1  697   4.732   0.284   3.515
  172SOL    HW2  698   4.638   0.150   3.511
  173SOL     OW  699   4.655   0.448   4.644
  173SOL    HW1  700   4.629   0.540   4.674
  173SOL    HW2  701   4.752   0.447   4.620
  174SOL     OW  702   3.739   0.355   0.673
  174SOL    HW1  703   3.735   0.439   0.619
  174SOL    HW2  704   3.687   0.284   0.626
  175SOL     OW  705   2.877   4.192   0.360
  175SOL    HW1  706   2.933   4.275   0.352
  175SOL    HW2  707   2.786   4.218   0.394
  176SOL     OW  708   4.749   0.240   3.869
  176SOL    HW1  709   4.678   0.311   3.866
  176SOL    HW2  710   4.705   0.150   3.866
  177SOL     OW  711   0.249   3.537   3.190
  177SOL    HW1  712   0.229   3.632   3.215
  177SOL    HW2  713   0.348   3.525   3.183
  178SOL     OW  714   0.756   0.464   1.279
  178SOL    HW1  715   0.751   0.364   1.275
  178SOL    HW2  716   0.839   0.491   1.327
  179SOL     OW  717   2.928   1.503   3.495
  179SOL    HW1  718   2.929   1.528   3.398
  179SOL    HW2  719   2.988   1.425   3.509
  180SOL     OW  720   2.747   1.989   0.927
  180SOL    HW1  721   2.745   1.915   0.859
  180SOL    HW2  722   2.665   2.044   0.918
  181SOL     OW  723   2.729   3.296   1.829
  181SOL    HW1  724   2.815   3.344   1.812
  181SOL    HW2  725   2.705   3.242   1.748
  182SOL     OW  726   0.690   1.328   4.473
  182SOL    HW1  727   0.592   1.318   4.455
  182SOL    HW2  728   0.723   1.248   4.522
  183SOL     OW  729   4.303   1.761   0.880
  183SOL    HW1  730   4.269   1.853   0.899
  183SOL    HW2  731   4.304   1.745   0.781
  184SOL     OW  732   0.238   4.528   1.841
  184SOL    HW1  733   0.295   4.464   1.893
  184SOL    HW2  734   0.167   4.477   1.792
  185SOL     OW  735   1.338   3.647   0.891
  185SOL    HW1  736   1.366   3.577   0.956
  185SOL    HW2  737   1.309   3.729   0.941
  186SOL     OW  738   0.440   1.306   0.978
  186SOL    HW1  739   0.482   1.246   0.910
  186SOL    HW2  740   0.484   1.396   0.974
  187SOL     OW  741   2.146   3.259   3.947
  187SOL    HW1  742   2.115   3.179   3.895
  187SOL    HW2  743   2.184   3.326   3.883
  188SOL     OW  744   2.408   1.628   2.510
  188SOL    HW1  745   2.450   1.539   2.495
  188SOL    HW2  746   2.477   1.692   2.545
  189SOL     OW  747   3.855   3.144   4.428
  189SOL    HW1  748   3.931   3.202   4.399
  189SOL    HW2  749   3.888   3.077   4.494
  190SOL     OW  750   4.792   1.267   2.497
  190SOL    HW1  751   4.769   1.194   2.433
  190SOL    HW2  752   4.727   1.342   2.488
  191SOL     OW  753   4.031   1.219   1.719
  191SOL    HW1  754   3.947   1.164   1.729
  191SOL    HW2  755   4.110   1.158   1.718
  192SOL     OW  756   3.275   0.788   0.414
  192SOL    HW1  757   3.177   0.785   0.434
  192SOL    HW2  758   3.322   0.840   0.486
  193SOL     OW  759   3.662   1.281   2.707
  193SOL    HW1  760   3.610   1.362   2.736
  193SOL    HW2  761   3.603   1.201   2.714
  194SOL     OW  762   1.577   0.607   3.703
  194SOL    HW1  763   1.481   0.583   3.687
  194SOL    HW2  764   1.630   0.587   3.620
  195SOL     OW  765   2.686   3.537   4.602
  195SOL    HW1  766   2.642   3.461   4.649
  195SOL    HW2  767   2.785   3.528   4.609
  196SOL     OW  768   4.261   3.503   3.516
  196SOL    HW1  769   4.177   3.545   3.550
  196SOL    HW2  770   4.339   3.539   3.567
  197SOL     OW  771   3.840   4.627   3.745
  197SOL    HW1  772   3.902   4.593   3.816
  197SOL    HW2  773   3.815   4.551   3.684
  198SOL     OW  774   4.715   1.194   4.559
  198SOL    HW1  775   4.628   1.179   4.512
  198SOL    HW2  776   4.739   1.111   4.610
  199SOL     OW  777   2.579   2.645   2.576
  199SOL    HW1  778   2.556   2.552   2.607
  199SOL    HW2  779   2.515   2.672   2.504
  200SOL     OW  780   2.084   3.512   4.121
  200SOL    HW1  781   2.170   3.562   4.123
  200SOL    HW2  782   2.082   3.453   4.040
  201SOL     OW  783   3.943   2.994   1.339
  201SOL    HW1  784   3.900   3.033   1.258
  201SOL    HW2  785   3.984   2.906   1.316
  202SOL     OW  786   3.303   2.736   4.101
  202SOL    HW1  787   3.227   2.676   4.123
  202SOL    HW2  788   3.347   2.705   4.017
  203SOL     OW  789   2.187   3.200   1.821
  203SOL    HW1  790   2.164   3.298   1.818
  203SOL    HW2  791   2.106   3.148   1.849
  204SOL     OW  792   3.998   4.771   3.240
  204SOL    HW1  793   3.961   4.849   3.291
  204SOL    HW2  794   4.070   4.803   3.178
  205SOL     OW  795   0.704   1.276   2.098
  205SOL    HW1  796   0.701   1.315   2.006
  205SOL    HW2  797   0.799   1.265   2.127
  206SOL     OW  798   1.219   4.121   0.516
  206SOL    HW1  799   1.244   4.216   0.535
  206SOL    HW2  800   1.119   4.114   0.512
  207SOL     OW  801   3.191   4.000   3.588
  207SOL    HW1  802   3.096   3.979   3.609
  207SOL    HW2  803   3.217   3.955   3.502
  208SOL     OW  804   0.563   4.442   4.204
  208SOL    HW1  805   0.653   4.398   4.194
  208SOL    HW2  806   0.564   4.531   4.159
  209SOL     OW  807   4.753   0.877   1.459
  209SOL    HW1  808   4.703   0.791   1.458
  209SOL    HW2  809   4.688   0.953   1.462
  210SOL     OW  810   2.378   0.804   2.853
  210SOL    HW1  811   2.373   0.861   2.936
  210SOL    HW2  812   2.458   0.744   2.859
  211SOL     OW  813   1.878   0.312   3.448
  211SOL    HW1  814   1.931   0.396   3.440
  211SOL    HW2  815   1.780   0.334   3.449
  212SOL     OW  816   2.560   1.570   3.162
  212SOL    HW1  817   2.465   1.540   3.152
  212SOL    HW2  818   2.619   1.491   3.178
  213SOL     OW  819   3.449   3.398   3.040
  213SOL    HW1  820   3.502   3.470   2.994
  213SOL    HW2  821   3.507   3.354   3.108
  214SOL     OW  822   1.030   4.157   2.757
  214SOL    HW1  823   0.947   4.211   2.746
  214SOL    HW2  824   1.010   4.062   2.734
  215SOL     OW  825   1.477   4.457   1.280
  215SOL    HW1  826   1.559   4.486   1.329
  215SOL    HW2  827   1.403   4.523   1.297
  216SOL     OW  828   0.696   1.400   2.772
  216SOL    HW1  829   0.779   1.446   2.742
  216SOL    HW2  830   0.711   1.301   2.769
  217SOL     OW  831   2.240   4.765   0.151
  217SOL    HW1  832   2.324   4.711   0.150
  217SOL    HW2  833   2.257   4.851   0.200
  218SOL     OW  834   2.243   4.310   0.773
  218SOL    HW1  835   2.164   4.372   0.768
  218SOL    HW2  836   2.327   4.364   0.774
  219SOL     OW  837   0.500   1.524   3.402
  219SOL    HW1  838   0.409   1.565   3.398
  219SOL    HW2  839   0.563   1.589   3.445
  220SOL     OW  840   3.709   3.510   3.056
  220SOL    HW1  841   3.777   3.474   3.120
  220SOL    HW2  842   3.754   3.575   2.994
  221SOL     OW  843   2.914   2.942   0.364
  221SOL    HW1  844   2.815   2.947   0.367
  221SOL    HW2  845   2.943   2.846   0.370
  222SOL     OW  846   4.725   1.902   4.418
  222SOL    HW1  847   4.659   1.975   4.400
  222SOL    HW2  848   4.817   1.940   4.420
  223SOL     OW  849   1.523   3.320   2.403
  223SOL    HW1  850   1.606   3.285   2.358
  223SOL    HW2  851   1.485   3.248   2.462
  224SOL     OW  852   0.656   1.324   0.653
  224SOL    HW1  853   0.753   1.348   0.658
  224SOL    HW2  854   0.608   1.363   0.732
  225SOL     OW  855   2.274   2.575   0.941
  225SOL    HW1  856   2.344   2.567   1.012
  225SOL    HW2  857   2.259   2.486   0.899
  226SOL     OW  858   2.210   4.627   0.436
  226SOL    HW1  859   2.302   4.667   0.426
  226SOL    HW2  860   2.213   4.532   0.407
  227SOL     OW  861   0.530   3.938   3.152
  227SOL    HW1  862   0.441   3.964   3.113
  227SOL    HW2  863   0.591   3.910   3.077
  228SOL     OW  864   4.667   0.339   2.236
  228SOL    HW1  865   4.711   0.424   2.208
  228SOL    HW2  866   4.724   0.293   2.305
  229SOL     OW  867   3.843   2.943   1.696
  229SOL    HW1  868   3.928   2.924   1.646
  229SOL    HW2  869   3.788   2.859   1.701
  230SOL     OW  870   2.911   3.175   0.677
  230SOL    HW1  871   2.925   3.163   0.579
  230SOL    HW2  872   2.816   3.204   0.694
  231SOL     OW  873   0.488   1.622   2.114
  231SOL    HW1  874   0.508   1.711   2.073
  231SOL    HW2  875   0.409   1.582   2.067
  232SOL     OW  876   0.752   4.208   4.300
  232SOL    HW1  877   0.827   4.143   4.307
  232SOL    HW2  878   0.692   4.182   4.225
  233SOL     OW  879   0.294   1.012   4.449
  233SOL    HW1  880   0.344   1.087   4.492
  233SOL    HW2  881   0.269   0.945   4.519
  234SOL     OW  882   1.610   2.856   0.674
  234SOL    HW1  883   1.702   2.820   0.687
  234SOL    HW2  884   1.611   2.955   0.687
  235SOL     OW  885   4.787   4.040   0.952
  235SOL    HW1  886   4.829   3.956   0.988
  235SOL    HW2  887   4.805   4.115   1.016
  236SOL     OW  888   1.811   1.593   1.820
  236SOL    HW1  889   1.896   1.554   1.785
  236SOL    HW2  890   1.830   1.683   1.860
  237SOL     OW  891   3.710   4.525   1.676
  237SOL    HW1  892   3.696   4.575   1.762
  237SOL    HW2  893   3.663   4.437   1.680
  238SOL     OW  894   3.504   2.895   2.902
  238SOL    HW1  895   3.459   2.806   2.914
  238SOL    HW2  896   3.472   2.936   2.817
  239SOL     OW  897   3.014   1.738   3.549
  239SOL    HW1  898   3.037   1.816   3.608
  239SOL    HW2  899   3.015   1.768   3.453
  240SOL     OW  900   3.164   0.836   1.857
  240SOL    HW1  901   3.106   0.832   1.938
  240SOL    HW2  902   3.259   0.850   1.884
  241SOL     OW  903   2.937   2.367   2.709
  241SOL    HW1  904   2.859   2.400   2.762
  241SOL    HW2  905   3.021   2.397   2.754
  242SOL     OW  906   4.794   3.495   4.816
  242SOL    HW1  907   4.704   3.467   4.850
  242SOL    HW2  908   4.804   3.467   4.721
  243SOL     OW  909   1.614   2.797   1.925
  243SOL    HW1  910   1.646   2.745   2.003
  243SOL    HW2  911   1.629   2.744   1.841
  244SOL     OW  912   2.597   0.749   2.496
  244SOL    HW1  913   2.639   0.693   2.567
  244SOL    HW2  914   2.527   0.807   2.537
  245SOL     OW  915   4.096   3.466   4.336
  245SOL    HW1  916   4.055   3.375   4.333
  245SOL    HW2  917   4.024   3.535   4.340
  246SOL     OW  918   2.537   2.370   1.420
  246SOL    HW1  919   2.437   2.373   1.425
  246SOL    HW2  920   2.572   2.464   1.418
  247SOL     OW  921   1.365   1.626   0.560
  247SOL    HW1  922   1.388   1.579   0.475
  247SOL    HW2  923   1.434   1.695   0.579
  248SOL     OW  924   1.708   3.737   2.452
  248SOL    HW1  925   1.777   3.801   2.418
  248SOL    HW2  926   1.699   3.747   2.551
  249SOL     OW  927   4.570   2.714   2.844
  249SOL    HW1  928   4.556   2.809   2.871
  249SOL    HW2  929   4.484   2.664   2.854
  250SOL     OW  930   4.153   1.121   3.582
  250SOL    HW1  931   4.135   1.044   3.643
  250SOL    HW2  932   4.087   1.194   3.601
  251SOL     OW  933   2.146   0.817   3.916
  251SOL    HW1  934   2.180   0.827   4.010
  251SOL    HW2  935   2.221   0.786   3.857
  252SOL     OW  936   1.729   3.353   3.923
  252SOL    HW1  937   1.632   3.329   3.915
  252SOL    HW2  938   1.777   3.279   3.970
  253SOL     OW  939   4.105   0.283   2.482
  253SOL    HW1  940   4.051   0.224   2.543
  253SOL    HW2  941   4.056   0.369   2.469
  254SOL     OW  942   3.798   2.522   2.525
  254SOL    HW1  943   3.722   2.462   2.499
  254SOL    HW2  944   3.777   2.615   2.495
  255SOL     OW  945   4.806   3.826   2.856
  255SOL    HW1  946   4.811   3.896   2.927
  255SOL    HW2  947   4.712   3.823   2.820
  256SOL     OW  948   1.044   4.566   1.019
  256SOL    HW1  949   1.102   4.626   0.964
  256SOL    HW2  950   1.088   4.551   1.107
  257SOL     OW  951   0.882   1.047   0.799
  257SOL    HW1  952   0.971   1.015   0.831
  257SOL    HW2  953   0.812   0.982   0.828
  258SOL     OW  954   4.648   2.645   1.071
  258SOL    HW1  955   4.611   2.728   1.027
  258SOL    HW2  956   4.742   2.663   1.101
  259SOL     OW  957   3.648   1.560   1.849
  259SOL    HW1  958   3.733   1.559   1.902
  259SOL    HW2  959   3.619   1.465   1.832
  260SOL     OW  960   1.110   3.535   0.830
  260SOL    HW1  961   1.012   3.554   0.826
  260SOL    HW2  962   1.124   3.436   0.834
  261SOL     OW  963   4.093   4.775   0.958
  261SOL    HW1  964   4.041   4.844   1.009
  261SOL    HW2  965   4.076   4.685   0.999
  262SOL     OW  966   3.404   2.814   3.196
  262SOL    HW1  967   3.463   2.886   3.158
  262SOL    HW2  968   3.366   2.845   3.283
  263SOL     OW  969   1.852   1.539   1.522
  263SOL    HW1  970   1.944   1.571   1.503
  263SOL    HW2  971   1.792   1.618   1.536
  264SOL     OW  972   3.052   2.300   0.584
  264SOL    HW1  973   3.044   2.347   0.496
  264SOL    HW2  974   3.138   2.248   0.586
  265SOL     OW  975   2.908   3.436   0.599
  265SOL    HW1  976   2.978   3.399   0.660
  265SOL    HW2  977   2.915   3.535   0.597
  266SOL     OW  978   3.464   1.661   2.800
  266SOL    HW1  979   3.535   1.728   2.782
  266SOL    HW2  980   3.408   1.649   2.718
  267SOL     OW  981   4.424   0.853   0.552
  267SOL    HW1  982   4.497   0.921   0.538
  267SOL    HW2  983   4.415   0.835   0.650
  268SOL     OW  984   2.586   3.255   0.487
  268SOL    HW1  985   2.650   3.178   0.489
  268SOL    HW2  986   2.620   3.328   0.546
  269SOL     OW  987   2.385   1.318   0.183
  269SOL    HW1  988   2.334   1.386   0.235
  269SOL    HW2  989   2.419   1.247   0.245
  270SOL     OW  990   1.598   4.339   1.762
  270SOL    HW1  991   1.666   4.409   1.740
  270SOL    HW2  992   1.620   4.299   1.851
  271SOL     OW  993   4.152   2.239   0.829
  271SOL    HW1  994   4.217   2.201   0.763
  271SOL    HW2  995   4.072   2.179   0.834
  272SOL     OW  996   2.828   4.669   2.737
  272SOL    HW1  997   2.766   4.594   2.713
  272SOL    HW2  998   2.916   4.656   2.691
  273SOL     OW  999   1.061   2.401   1.137
  273SOL    HW1 1000   0.965   2.381   1.157
  273SOL    HW2 1001   1.072   2.500   1.125
  274SOL     OW 1002   4.281   2.558   4.220
  274SOL    HW1 1003   4.271   2.537   4.122
  274SOL    HW2 1004   4.255   2.654   4.235
  275SOL     OW 1005   0.894   2.865   2.533
  275SOL    HW1 1006   0.844   2.844   2.449
  275SOL    HW2 1007   0.986   2.896   2.509
  276SOL     OW 1008   1.189   4.487   2.896
  276SOL    HW1 1009   1.246   4.418   2.941
  276SOL    HW2 1010   1.137   4.537   2.965
  277SOL     OW 1011   1.508   1.453   2.382
  277SOL    HW1 1012   1.509   1.354   2.374
  277SOL    HW2 1013   1.414   1.484   2.393
  278SOL     OW 1014   1.459   3.258   3.604
  278SOL    HW1 1015   1.381   3.202   3.629
  278SOL    HW2 1016   1.530   3.248   3.674
  279SOL     OW 1017   3.987   2.986   3.904
  279SOL    HW1 1018   3.931   3.068   3.902
  279SOL    HW2 1019   3.968   2.934   3.987
  280SOL     OW 1020   1.795   1.857   1.332
  280SOL    HW1 1021   1.807   1.847   1.233
  280SOL    HW2 1022   1.778   1.767   1.372
  281SOL     OW 1023   2.098   3.192   4.728
  281SOL    HW1 1024   2.197   3.184   4.713
  281SOL    HW2 1025   2.073   3.289   4.724
  282SOL     OW 1026   3.383   4.075   4.208
  282SOL    HW1 1027   3.432   4.034   4.285
  282SOL    HW2 1028   3.449   4.121   4.148
  283SOL     OW 1029   2.438   2.371   0.964
  283SOL    HW1 1030   2.468   2.360   0.870
  283SOL    HW2 1031   2.429   2.281   1.007
  284SOL     OW 1032   0.836   0.830   2.381
  284SOL    HW1 1033   0.755   0.831   2.321
  284SOL    HW2 1034   0.903   0.765   2.345
  285SOL     OW 1035   1.202   2.738   4.655
  285SOL    HW1 1036   1.108   2.716   4.627
  285SOL    HW2 1037   1.263   2.722   4.578
  286SOL     OW 1038   3.595   4.762   2.617
  286SOL    HW1 1039   3.547   4.834   2.567
  286SOL    HW2 1040   3.531   4.686   2.634
  287SOL     OW 1041   3.047   3.837   2.322
  287SOL    HW1 1042   3.141   3.804   2.307
  287SOL    HW2 1043   2.993   3.817   2.240
  288SOL     OW 1044   1.304   1.893   0.522
  288SOL    HW1 1045   1.370   1.962   0.491
  288SOL    HW2 1046   1.211   1.929   0.511
  289SOL     OW 1047   1.114   2.607   0.421
  289SOL    HW1 1048   1.099   2.628   0.324
  289SOL    HW2 1049   1.060   2.526   0.445
  290SOL     OW 1050   3.100   1.569   3.124
  290SOL    HW1 1051   3.165   1.573   3.200
  290SOL    HW2 1052   3.113   1.648   3.064
  291SOL     OW 1053   1.568   4.264   3.797
  291SOL    HW1 1054   1.520   4.351   3.809
  291SOL    HW2 1055   1.515   4.191   3.841
  292SOL     OW 1056   1.721   0.906   4.737
  292SOL    HW1 1057   1.748   0.810   4.747
  292SOL    HW2 1058   1.739   0.935   4.643
  293SOL     OW 1059   0.523   3.975   1.724
  293SOL    HW1 1060   0.448   3.984   1.659
  293SOL    HW2 1061   0.550   3.879   1.731
  294SOL     OW 1062   0.472   2.366   2.048
  294SOL    HW1 1063   0.403   2.427   2.010
  294SOL    HW2 1064   0.455   2.273   2.015
  295SOL     OW 1065   3.194   4.790   2.720
  295SOL    HW1 1066   3.107   4.837   2.702
  295SOL    HW2 1067   3.254   4.802   2.641
  296SOL     OW 1068   4.669   3.802   4.803
  296SOL    HW1 1069   4.767   3.789   4.819
  296SOL    HW2 1070   4.653   3.815   4.705
  297SOL     OW 1071   3.357   4.078   1.459
  297SOL    HW1 1072   3.419   4.001   1.471
  297SOL    HW2 1073   3.263   4.044   1.451
  298SOL     OW 1074   2.776   3.216   0.149
  298SOL    HW1 1075   2.740   3.273   0.223
  298SOL    HW2 1076   2.748   3.122   0.165
  299SOL     OW 1077   1.680   3.641   2.799
  299SOL    HW1 1078   1.744   3.579   2.754
  299SOL    HW2 1079   1.589   3.627   2.760
  300SOL     OW 1080   4.140   3.237   2.178
  300SOL    HW1 1081   4.173   3.327   2.148
  300SOL    HW2 1082   4.052   3.219   2.134
  301SOL     OW 1083   3.308   3.206   1.427
  301SOL    HW1 1084   3.234   3.229   1.490
  301SOL    HW2 1085   3.395   3.238   1.464
  302SOL     OW 1086   2.810   3.162   2.853
  302SOL    HW1 1087   2.860   3.109   2.785
  302SOL    HW2 1088   2.845   3.139   2.944
  303SOL     OW 1089   2.639   1.588   4.153
  303SOL    HW1 1090   2.737   1.578   4.135
  303SOL    HW2 1091   2.622   1.679   4.192
  304SOL     OW 1092   0.302   2.121   1.358
  304SOL    HW1 1093   0.382   2.098   1.303
  304SOL    HW2 1094   0.225   2.064   1.330
  305SOL     OW 1095   3.729   4.088   2.346
  305SOL    HW1 1096   3.630   4.071   2.350
  305SOL    HW2 1097   3.775   4.002   2.324
  306SOL     OW 1098   3.745   2.881   2.889
  306SOL    HW1 1099   3.705   2.949   2.828
  306SOL    HW2 1100   3.845   2.891   2.888
  307SOL     OW 1101   0.380   3.314   3.756
  307SOL    HW1 1102   0.324   3.238   3.723
  307SOL    HW2 1103   0.321   3.392   3.778
  308SOL     OW 1104   1.247   1.056   3.402
  308SOL    HW1 1105   1.221   1.153   3.406
  308SOL    HW2 1106   1.164   1.001   3.399
  309SOL     OW 1107   1.178   2.190   1.637
  309SOL    HW1 1108   1.276   2.208   1.625
  309SOL    HW2 1109   1.151   2.112   1.580
  310SOL     OW 1110   2.761   3.471   3.921
  310SOL    HW1 1111   2.796   3.402   3.984
  310SOL    HW2 1112   2.794   3.561   3.950
  311SOL     OW 1113   3.280   0.910   1.594
  311SOL    HW1 1114   3.364   0.874   1.552
  311SOL    HW2 1115   3.238   0.839   1.650
  312SOL     OW 1116   3.927   3.790   3.152
  312SOL    HW1 1117   3.966   3.771   3.242
  312SOL    HW2 1118   4.000   3.802   3.086
  313SOL     OW 1119   2.172   0.538   4.615
  313SOL    HW1 1120   2.135   0.602   4.548
  313SOL    HW2 1121   2.101   0.514   4.681
  314SOL     OW 1122   4.534   2.956   4.832
  314SOL    HW1 1123   4.446   2.948   4.785
  314SOL    HW2 1124   4.552   3.053   4.850
  315SOL     OW 1125   2.884   0.601   2.268
  315SOL    HW1 1126   2.792   0.584   2.303
  315SOL    HW2 1127   2.894   0.557   2.179
  316SOL     OW 1128   2.755   1.369   2.547
  316SOL    HW1 1129   2.843   1.362   2.502
  316SOL    HW2 1130   2.699   1.437   2.500
  317SOL     OW 1131   3.747   0.200   3.244
  317SOL    HW1 1132   3.725   0.187   3.147
  317SOL    HW2 1133   3.749   0.298   3.264
  318SOL     OW 1134   3.986   4.704   1.302
  318SOL    HW1 1135   3.953   4.654   1.222
  318SOL    HW2 1136   4.008   4.798   1.274
  319SOL     OW 1137   2.718   1.002   2.735
  319SOL    HW1 1138   2.808   1.023   2.774
  319SOL    HW2 1139   2.686   0.915   2.771
  320SOL     OW 1140   2.192   2.738   3.747
  320SOL    HW1 1141   2.155   2.645   3.756
  320SOL    HW2 1142   2.123   2.804   3.775
  321SOL     OW 1143   2.844   2.340   0.815
  321SOL    HW1 1144   2.936   2.381   0.815
  321SOL    HW2 1145   2.776   2.413   0.816
  322SOL     OW 1146   0.460   1.188   1.702
  322SOL    HW1 1147   0.468   1.100   1.749
  322SOL    HW2 1148   0.380   1.237   1.738
  323SOL     OW 1149   4.516   2.519   3.433
  323SOL    HW1 1150   4.581   2.454   3.471
  323SOL    HW2 1151   4.553   2.611   3.439
  324SOL     OW 1152   2.022   3.927   0.618
  324SOL    HW1 1153   2.025   3.916   0.519
  324SOL    HW2 1154   2.114   3.950   0.651
  325SOL     OW 1155   0.929   3.459   0.643
  325SOL    HW1 1156   0.912   3.363   0.621
  325SOL    HW2 1157   0.841   3.506   0.658
  326SOL     OW 1158   4.377   3.487   0.861
  326SOL    HW1 1159   4.394   3.576   0.819
  326SOL    HW2 1160   4.327   3.500   0.947
  327SOL     OW 1161   1.239   4.778   1.215
  327SOL    HW1 1162   1.310   4.708   1.223
  327SOL    HW2 1163   1.225   4.821   1.304
  328SOL     OW 1164   2.255   0.539   0.469
  328SOL    HW1 1165   2.340   0.499   0.435
  328SOL    HW2 1166   2.202   0.468   0.516
  329SOL     OW 1167   3.524   0.783   1.188
  329SOL    HW1 1168   3.490   0.837   1.111
  329SOL    HW2 1169   3.624   0.782   1.186
  330SOL     OW 1170   4.208   4.095   3.692
  330SOL    HW1 1171   4.161   4.059   3.773
  330SOL    HW2 1172   4.228   4.020   3.630
  331SOL     OW 1173   0.693   1.439   2.469
  331SOL    HW1 1174   0.724   1.345   2.483
  331SOL    HW2 1175   0.772   1.499   2.461
  332SOL     OW 1176   1.632   4.850   1.579
  332SOL    HW1 1177   1.580   4.850   1.665
  332SOL    HW2 1178   1.568   4.848   1.502
  333SOL     OW 1179   1.069   1.060   1.695
  333SOL    HW1 1180   1.110   1.136   1.745
  333SOL    HW2 1181   0.984   1.091   1.652
  334SOL     OW 1182   2.285   4.507   3.728
  334SOL    HW1 1183   2.262   4.592   3.681
  334SOL    HW2 1184   2.210   4.482   3.789
  335SOL     OW 1185   3.661   0.536   1.060
  335SOL    HW1 1186   3.622   0.444   1.066
  335SOL    HW2 1187   3.710   0.557   1.144
  336SOL     OW 1188   3.922   4.756   0.643
  336SOL    HW1 1189   3.899   4.849   0.617
  336SOL    HW2 1190   3.842   4.712   0.682
  337SOL     OW 1191   2.878   0.825   3.851
  337SOL    HW1 1192   2.807   0.868   3.794
  337SOL    HW2 1193   2.834   0.769   3.921
  338SOL     OW 1194   0.574   1.410   4.773
  338SOL    HW1 1195   0.540   1.495   4.813
  338SOL    HW2 1196   0.625   1.359   4.843
  339SOL     OW 1197   2.200   0.265   1.279
  339SOL    HW1 1198   2.192   0.365   1.269
  339SOL    HW2 1199   2.108   0.226   1.282
  340SOL     OW 1200   1.796   0.322   2.516
  340SOL    HW1 1201   1.792   0.413   2.557
  340SOL    HW2 1202   1.891   0.299   2.496
  341SOL     OW 1203   1.320   3.444   3.625
  341SOL    HW1 1204   1.238   3.395   3.657
  341SOL    HW2 1205   1.317   3.452   3.526
  342SOL     OW 1206   1.536   0.795   3.591
  342SOL    HW1 1207   1.463   0.860   3.613
  342SOL    HW2 1208   1.610   0.843   3.544
  343SOL     OW 1209   3.914   1.682   1.666
  343SOL    HW1 1210   3.978   1.756   1.645
  343SOL    HW2 1211   3.965   1.605   1.705
  344SOL     OW 1212   4.018   3.370   2.384
  344SOL    HW1 1213   3.959   3.290   2.377
  344SOL    HW2 1214   3.962   3.452   2.393
  345SOL     OW 1215   4.505   1.879   0.559
  345SOL    HW1 1216   4.599   1.874   0.527
  345SOL    HW2 1217   4.467   1.969   0.537
  346SOL     OW 1218   4.737   4.032   2.106
  346SOL    HW1 1219   4.769   3.969   2.176
  346SOL    HW2 1220   4.778   4.122   2.121
  347SOL     OW 1221   2.438   0.515   1.603
  347SOL    HW1 1222   2.458   0.495   1.507
  347SOL    HW2 1223   2.355   0.571   1.609
  348SOL     OW 1224   4.257   4.137   2.583
  348SOL    HW1 1225   4.286   4.208   2.518
  348SOL    HW2 1226   4.324   4.063   2.583
  349SOL     OW 1227   1.012   3.186   1.766
  349SOL    HW1 1228   0.977   3.094   1.781
  349SOL    HW2 1229   1.018   3.234   1.854
  350SOL     OW 1230   2.529   3.320   1.457
  350SOL    HW1 1231   2.565   3.388   1.392
  350SOL    HW2 1232   2.439   3.350   1.489
  351SOL     OW 1233   4.080   3.946   2.932
  351SOL    HW1 1234   4.143   3.954   2.855
  351SOL    HW2 1235   4.024   4.029   2.938
  352SOL     OW 1236   2.488   1.593   1.042
  352SOL    HW1 1237   2.536   1.679   1.029
  352SOL    HW2 1238   2.392   1.611   1.063
  353SOL     OW 1239   3.364   3.345   3.732
  353SOL    HW1 1240   3.329   3.428   3.773
  353SOL    HW2 1241   3.292   3.303   3.676
  354SOL     OW 1242   4.097   2.361   2.411
  354SOL    HW1 1243   4.187   2.405   2.413
  354SOL    HW2 1244   4.110   2.261   2.414
  355SOL     OW 1245   4.137   0.236   4.457
  355SOL    HW1 1246   4.156   0.248   4.554
  355SOL    HW2 1247   4.086   0.151   4.443
  356SOL     OW 1248   1.653   0.647   0.529
  356SOL    HW1 1249   1.752   0.637   0.532
  356SOL    HW2 1250   1.630   0.744   0.522
  357SOL     OW 1251   2.108   3.271   3.658
  357SOL    HW1 1252   2.084   3.338   3.589
  357SOL    HW2 1253   2.168   3.202   3.617
  358SOL     OW 1254   3.352   0.461   4.106
  358SOL    HW1 1255   3.290   0.384   4.120
  358SOL    HW2 1256   3.443   0.427   4.084
  359SOL     OW 1257   3.538   0.421   3.064
  359SOL    HW1 1258   3.498   0.330   3.065
  359SOL    HW2 1259   3.637   0.414   3.063
  360SOL     OW 1260   3.350   2.291   1.058
  360SOL    HW1 1261   3.355   2.362   1.127
  360SOL    HW2 1262   3.260   2.247   1.063
  361SOL     OW 1263   3.309   1.068   2.980
  361SOL    HW1 1264   3.305   1.002   2.905
  361SOL    HW2 1265   3.405   1.086   3.003
  362SOL     OW 1266   4.634   3.940   1.524
  362SOL    HW1 1267   4.553   3.998   1.526
  362SOL    HW2 1268   4.607   3.844   1.530
  363SOL     OW 1269   0.518   1.009   0.351
  363SOL    HW1 1270   0.458   0.929   0.355
  363SOL    HW2 1271   0.613   0.979   0.351
  364SOL     OW 1272   3.939   3.596   0.301
  364SOL    HW1 1273   3.952   3.519   0.363
  364SOL    HW2 1274   3.977   3.678   0.342
  365SOL     OW 1275   0.753   1.786   3.973
  365SOL    HW1 1276   0.706   1.872   3.991
  365SOL    HW2 1277   0.849   1.805   3.950
  366SOL     OW 1278   2.708   0.927   4.380
  366SOL    HW1 1279   2.805   0.903   4.378
  366SOL    HW2 1280   2.654   0.844   4.389
  367SOL     OW 1281   0.276   4.068   3.236
  367SOL    HW1 1282   0.205   4.136   3.219
  367SOL    HW2 1283   0.237   3.977   3.224
  368SOL     OW 1284   0.258   4.302   1.588
  368SOL    HW1 1285   0.353   4.333   1.588
  368SOL    HW2 1286   0.197   4.380   1.575
  369SOL     OW 1287   0.207   2.455   2.417
  369SOL    HW1 1288   0.157   2.421   2.337
  369SOL    HW2 1289   0.149   2.445   2.498
  370SOL     OW 1290   4.293   1.099   4.502
  370SOL    HW1 1291   4.344   1.166   4.556
  370SOL    HW2 1292   4.343   1.013   4.501
  371SOL     OW 1293   2.529   3.920   0.648
  371SOL    HW1 1294   2.468   3.985   0.601
  371SOL    HW2 1295   2.582   3.970   0.717
  372SOL     OW 1296   3.639   0.893   2.788
  372SOL    HW1 1297   3.562   0.831   2.771
  372SOL    HW2 1298   3.613   0.986   2.761
  373SOL     OW 1299   2.255   1.912   0.478
  373SOL    HW1 1300   2.298   1.863   0.402
  373SOL    HW2 1301   2.212   1.846   0.539
  374SOL     OW 1302   2.985   3.386   3.194
  374SOL    HW1 1303   3.022   3.331   3.119
  374SOL    HW2 1304   3.004   3.339   3.280
  375SOL     OW 1305   1.728   0.413   3.089
  375SOL    HW1 1306   1.808   0.417   3.148
  375SOL    HW2 1307   1.648   0.388   3.144
  376SOL     OW 1308   3.786   3.216   2.657
  376SOL    HW1 1309   3.847   3.277   2.708
  376SOL    HW2 1310   3.733   3.161   2.722
  377SOL     OW 1311   4.601   4.462   1.734
  377SOL    HW1 1312   4.628   4.489   1.827
  377SOL    HW2 1313   4.593   4.362   1.730
  378SOL     OW 1314   4.682   4.387   0.289
  378SOL    HW1 1315   4.722   4.478   0.286
  378SOL    HW2 1316   4.627   4.372   0.207
  379SOL     OW 1317   3.536   4.072   3.285
  379SOL    HW1 1318   3.547   4.170   3.268
  379SOL    HW2 1319   3.582   4.021   3.213
  380SOL     OW 1320   1.342   1.023   1.463
  380SOL    HW1 1321   1.254   1.059   1.493
  380SOL    HW2 1322   1.328   0.938   1.413
  381SOL     OW 1323   2.585   1.120   2.446
  381SOL    HW1 1324   2.583   1.030   2.401
  381SOL    HW2 1325   2.545   1.111   2.537
  382SOL     OW 1326   4.193   3.386   4.621
  382SOL    HW1 1327   4.260   3.336   4.676
  382SOL    HW2 1328   4.113   3.405   4.677
  383SOL     OW 1329   2.024   0.801   2.315
  383SOL    HW1 1330   2.032   0.762   2.406
  383SOL    HW2 1331   2.059   0.895   2.316
  384SOL     OW 1332   4.518   3.748   3.145
  384SOL    HW1 1333   4.455   3.826   3.138
  384SOL    HW2 1334   4.610   3.782   3.165
  385SOL     OW 1335   4.571   2.073   2.419
  385SOL    HW1 1336   4.485   2.025   2.403
  385SOL    HW2 1337   4.641   2.039   2.356
  386SOL     OW 1338   4.794   2.490   2.440
  386SOL    HW1 1339   4.808   2.405   2.490
  386SOL    HW2 1340   4.851   2.490   2.358
  387SOL     OW 1341   4.788   4.039   3.128
  387SOL    HW1 1342   4.698   4.081   3.125
  387SOL    HW2 1343   4.850   4.096   3.181
  388SOL     OW 1344   2.346   2.887   3.524
  388SOL    HW1 1345   2.368   2.873   3.428
  388SOL    HW2 1346   2.293   2.971   3.534
  389SOL     OW 1347   1.922   0.844   1.328
  389SOL    HW1 1348   1.889   0.867   1.237
  389SOL    HW2 1349   1.845   0.812   1.383
  390SOL     OW 1350   0.893   1.198   3.937
  390SOL    HW1 1351   0.860   1.292   3.932
  390SOL    HW2 1352   0.815   1.137   3.949
  391SOL     OW 1353   3.541   1.777   2.493
  391SOL    HW1 1354   3.639   1.758   2.489
  391SOL    HW2 1355   3.490   1.691   2.494
  392SOL     OW 1356   4.437   3.281   3.733
  392SOL    HW1 1357   4.366   3.337   3.690
  392SOL    HW2 1358   4.394   3.219   3.799
  393SOL     OW 1359   1.195   2.616   3.342
  393SOL    HW1 1360   1.167   2.572   3.428
  393SOL    HW2 1361   1.198   2.715   3.356
  394SOL     OW 1362   2.233   2.161   3.153
  394SOL    HW1 1363   2.333   2.154   3.155
  394SOL    HW2 1364   2.197   2.159   3.246
  395SOL     OW 1365   2.933   1.303   2.694
  395SOL    HW1 1366   3.031   1.286   2.705
  395SOL    HW2 1367   2.891   1.310   2.784
  396SOL     OW 1368   1.177   0.813   2.885
  396SOL    HW1 1369   1.192   0.714   2.886
  396SOL    HW2 1370   1.265   0.860   2.878
  397SOL     OW 1371   1.537   0.635   2.705
  397SOL    HW1 1372   1.589   0.713   2.739
  397SOL    HW2 1373   1.443   0.639   2.740
  398SOL     OW 1374   0.486   1.964   4.660
  398SOL    HW1 1375   0.571   1.992   4.614
  398SOL    HW2 1376   0.481   1.864   4.660
  399SOL     OW 1377   0.875   4.306   1.024
  399SOL    HW1 1378   0.814   4.384   1.032
  399SOL    HW2 1379   0.965   4.331   1.059
  400SOL     OW 1380   2.038   1.057   4.770
  400SOL    HW1 1381   1.968   1.072   4.840
  400SOL    HW2 1382   2.051   0.959   4.757
  401SOL     OW 1383   2.982   3.107   3.633
  401SOL    HW1 1384   2.983   3.007   3.634
  401SOL    HW2 1385   2.911   3.138   3.570
  402SOL     OW 1386   4.108   3.714   1.804
  402SOL    HW1 1387   4.049   3.790   1.832
  402SOL    HW2 1388   4.150   3.736   1.716
  403SOL     OW 1389   2.037   2.084   4.312
  403SOL    HW1 1390   2.078   2.157   4.366
  403SOL    HW2 1391   1.950   2.116   4.273
  404SOL     OW 1392   2.361   1.524   2.220
  404SOL    HW1 1393   2.350   1.478   2.308
  404SOL    HW2 1394   2.348   1.623   2.232
  405SOL     OW 1395   1.977   0.369   0.933
  405SOL    HW1 1396   1.881   0.349   0.954
  405SOL    HW2 1397   2.031   0.359   1.016
  406SOL     OW 1398   2.744   4.068   3.599
  406SOL    HW1 1399   2.805   3.989   3.593
  406SOL    HW2 1400   2.649   4.038   3.591
  407SOL     OW 1401   3.111   3.511   0.417
  407SOL    HW1 1402   3.130   3.609   0.428
  407SOL    HW2 1403   3.105   3.489   0.320
  408SOL     OW 1404   1.068   3.802   3.202
  408SOL    HW1 1405   1.127   3.725   3.226
  408SOL    HW2 1406   0.973   3.769   3.197
  409SOL     OW 1407   2.726   0.408   1.623
  409SOL    HW1 1408   2.660   0.336   1.644
  409SOL    HW2 1409   2.678   0.489   1.590
  410SOL     OW 1410   4.410   1.560   3.360
  410SOL    HW1 1411   4.343   1.634   3.353
  410SOL    HW2 1412   4.363   1.472   3.353
  411SOL     OW 1413   0.506   0.807   2.558
  411SOL    HW1 1414   0.470   0.855   2.478
  411SOL    HW2 1415   0.528   0.874   2.629
  412SOL     OW 1416   3.980   0.598   4.715
  412SOL    HW1 1417   3.944   0.581   4.623
  412SOL    HW2 1418   3.989   0.696   4.729
  413SOL     OW 1419   1.510   4.036   1.883
  413SOL    HW1 1420   1.586   3.985   1.843
  413SOL    HW2 1421   1.425   3.989   1.863
  414SOL     OW 1422   3.306   2.240   3.980
  414SOL    HW1 1423   3.242   2.170   3.946
  414SOL    HW2 1424   3.398   2.203   3.980
  415SOL     OW 1425   3.353   2.395   2.062
  415SOL    HW1 1426   3.272   2.371   2.008
  415SOL    HW2 1427   3.398   2.311   2.092
  416SOL     OW 1428   3.392   3.950   0.718
  416SOL    HW1 1429   3.421   3.855   0.705
  416SOL    HW2 1430   3.296   3.959   0.691
  417SOL     OW 1431   2.251   3.813   1.016
  417SOL    HW1 1432   2.193   3.739   0.983
  417SOL    HW2 1433   2.322   3.775   1.076
  418SOL     OW 1434   2.022   3.408   4.430
  418SOL    HW1 1435   1.945   3.470   4.417
  418SOL    HW2 1436   2.097   3.458   4.474
  419SOL     OW 1437   3.860   2.482   2.802
  419SOL    HW1 1438   3.800   2.419   2.752
  419SOL    HW2 1439   3.867   2.568   2.752
  420SOL     OW 1440   4.154   1.150   4.036
  420SOL    HW1 1441   4.231   1.191   4.083
  420SOL    HW2 1442   4.090   1.112   4.103
  421SOL     OW 1443   4.342   4.835   4.190
  421SOL    HW1 1444   4.427   4.815   4.238
  421SOL    HW2 1445   4.279   4.758   4.199
  422SOL     OW 1446   0.295   1.704   3.600
  422SOL    HW1 1447   0.233   1.781   3.588
  422SOL    HW2 1448   0.389   1.735   3.587
  423SOL     OW 1449   2.398   1.818   0.869
  423SOL    HW1 1450   2.369   1.871   0.789
  423SOL    HW2 1451   2.381   1.720   0.852
  424SOL     OW 1452   2.479   3.495   2.174
  424SOL    HW1 1453   2.500   3.428   2.103
  424SOL    HW2 1454   2.411   3.457   2.236
  425SOL     OW 1455   3.771   4.816   1.002
  425SOL    HW1 1456   3.774   4.850   1.097
  425SOL    HW2 1457   3.825   4.733   0.996
  426SOL     OW 1458   4.140   0.396   0.819
  426SOL    HW1 1459   4.066   0.330   0.802
  426SOL    HW2 1460   4.162   0.442   0.733
  427SOL     OW 1461   3.057   1.151   4.764
  427SOL    HW1 1462   3.133   1.181   4.707
  427SOL    HW2 1463   3.067   1.053   4.783
  428SOL     OW 1464   0.500   1.126   3.413
  428SOL    HW1 1465   0.568   1.070   3.366
  428SOL    HW2 1466   0.530   1.222   3.413
  429SOL     OW 1467   2.782   2.533   0.193
  429SOL    HW1 1468   2.703   2.582   0.231
  429SOL    HW2 1469   2.750   2.449   0.149
  430SOL     OW 1470   4.404   3.581   4.085
  430SOL    HW1 1471   4.371   3.519   4.013
  430SOL    HW2 1472   4.360   3.557   4.172
  431SOL     OW 1473   3.934   4.041   4.510
  431SOL    HW1 1474   4.009   4.104   4.532
  431SOL    HW2 1475   3.852   4.070   4.559
  432SOL     OW 1476   1.895   2.899   4.009
  432SOL    HW1 1477   1.873   2.981   4.061
  432SOL    HW2 1478   1.952   2.839   4.064
  433SOL     OW 1479   1.546   0.696   3.256
  433SOL    HW1 1480   1.583   0.787   3.270
  433SOL    HW2 1481   1.621   0.631   3.244
  434SOL     OW 1482   4.216   4.325   2.259
  434SOL    HW1 1483   4.215   4.425   2.262
  434SOL    HW2 1484   4.143   4.289   2.316
  435SOL     OW 1485   2.021   1.825   3.098
  435SOL    HW1 1486   1.943   1.786   3.147
  435SOL    HW2 1487   2.106   1.796   3.144
  436SOL     OW 1488   2.820   1.716   2.905
  436SOL    HW1 1489   2.793   1.676   2.818
  436SOL    HW2 1490   2.905   1.674   2.936
  437SOL     OW 1491   3.658   4.395   4.000
  437SOL    HW1 1492   3.630   4.319   4.058
  437SOL    HW2 1493   3.674   4.476   4.056
  438SOL     OW 1494   3.478   0.349   4.499
  438SOL    HW1 1495   3.395   0.406   4.496
  438SOL    HW2 1496   3.554   0.399   4.458
  439SOL     OW 1497   2.655   2.341   3.463
  439SOL    HW1 1498   2.710   2.308   3.387
  439SOL    HW2 1499   2.580   2.397   3.428
  440SOL     OW 1500   4.046   1.716   0.889
  440SOL    HW1 1501   4.053   1.766   0.803
  440SOL    HW2 1502   3.964   1.658   0.886
  441SOL     OW 1503   1.675   4.647   3.031
  441SOL    HW1 1504   1.756   4.698   3.000
  441SOL    HW2 1505   1.652   4.677   3.124
  442SOL     OW 1506   3.701   3.306   2.901
  442SOL    HW1 1507   3.791   3.347   2.915
  442SOL    HW2 1508   3.698   3.216   2.944
  443SOL     OW 1509   0.977   3.446   3.843
  443SOL    HW1 1510   1.037   3.450   3.763
  443SOL    HW2 1511   0.933   3.356   3.847
  444SOL     OW 1512   3.985   1.980   2.180
  444SOL    HW1 1513   4.022   1.887   2.168
  444SOL    HW2 1514   4.022   2.019   2.264
  445SOL     OW 1515   1.347   2.018   4.746
  445SOL    HW1 1516   1.318   1.923   4.746
  445SOL    HW2 1517   1.447   2.023   4.747
  446SOL     OW 1518   4.457   2.679   4.140
  446SOL    HW1 1519   4.515   2.636   4.071
  446SOL    HW2 1520   4.400   2.748   4.096
  447SOL     OW 1521   3.018   1.074   1.322
  447SOL    HW1 1522   3.088   1.064   1.393
  447SOL    HW2 1523   3.010   1.171   1.298
  448SOL     OW 1524   1.773   4.539   2.049
  448SOL    HW1 1525   1.791   4.453   2.096
  448SOL    HW2 1526   1.680   4.537   2.011
  449SOL     OW 1527   1.929   1.329   4.630
  449SOL    HW1 1528   1.864   1.273   4.681
  449SOL    HW2 1529   1.934   1.296   4.536
  450SOL     OW 1530   1.441   4.229   4.758
  450SOL    HW1 1531   1.471   4.318   4.725
  450SOL    HW2 1532   1.519   4.166   4.759
  451SOL     OW 1533   1.550   2.879   4.160
  451SOL    HW1 1534   1.595   2.879   4.249
  451SOL    HW2 1535   1.461   2.923   4.168
  452SOL     OW 1536   4.428   4.571   4.097
  452SOL    HW1 1537   4.470   4.480   4.094
  452SOL    HW2 1538   4.500   4.641   4.098
  453SOL     OW 1539   1.003   2.089   3.749
  453SOL    HW1 1540   1.039   2.043   3.668
  453SOL    HW2 1541   1.068   2.077   3.825
  454SOL     OW 1542   4.485   3.806   2.837
  454SOL    HW1 1543   4.454   3.741   2.906
  454SOL    HW2 1544   4.408   3.860   2.804
  455SOL     OW 1545   0.785   2.664   4.527
  455SOL    HW1 1546   0.725   2.595   4.568
  455SOL    HW2 1547   0.734   2.749   4.516
  456SOL     OW 1548   2.711   2.370   1.567
  456SOL    HW1 1549   2.711   2.467   1.594
  456SOL    HW2 1550   2.686   2.314   1.645
  457SOL     OW 1551   0.358   4.252   4.585
  457SOL    HW1 1552   0.337   4.154   4.590
  457SOL    HW2 1553   0.273   4.304   4.580
  458SOL     OW 1554   4.469   2.414   2.402
  458SOL    HW1 1555   4.432   2.322   2.411
  458SOL    HW2 1556   4.394   2.480   2.401
  459SOL     OW 1557   0.463   2.247   1.529
  459SOL    HW1 1558   0.396   2.320   1.542
  459SOL    HW2 1559   0.417   2.159   1.542
  460SOL     OW 1560   2.010   1.885   2.072
  460SOL    HW1 1561   2.085   1.838   2.118
  460SOL    HW2 1562   1.955   1.934   2.139
  461SOL     OW 1563   3.608   0.551   3.435
  461SOL    HW1 1564   3.512   0.579   3.435
  461SOL    HW2 1565   3.613   0.451   3.435
  462SOL     OW 1566   0.939   4.417   1.261
  462SOL    HW1 1567   0.894   4.354   1.324
  462SOL    HW2 1568   0.902   4.509   1.274
  463SOL     OW 1569   1.880   1.246   0.681
  463SOL    HW1 1570   1.889   1.260   0.583
  463SOL    HW2 1571   1.787   1.272   0.709
  464SOL     OW 1572   2.918   2.530   2.363
  464SOL    HW1 1573   2.962   2.442   2.377
  464SOL    HW2 1574   2.822   2.516   2.339
  465SOL     OW 1575   4.066   3.533   3.846
  465SOL    HW1 1576   4.003   3.591   3.794
  465SOL    HW2 1577   4.028   3.440   3.853
  466SOL     OW 1578   0.796   1.743   2.189
  466SOL    HW1 1579   0.734   1.689   2.246
  466SOL    HW2 1580   0.743   1.814   2.141
  467SOL     OW 1581   1.018   3.992   1.807
  467SOL    HW1 1582   1.001   3.940   1.723
  467SOL    HW2 1583   1.071   4.074   1.784
  468SOL     OW 1584   2.961   4.497   4.189
  468SOL    HW1 1585   2.895   4.501   4.114
  468SOL    HW2 1586   3.040   4.554   4.166
  469SOL     OW 1587   1.587   4.704   0.952
  469SOL    HW1 1588   1.489   4.721   0.955
  469SOL    HW2 1589   1.605   4.619   0.902
  470SOL     OW 1590   1.868   1.753   4.776
  470SOL    HW1 1591   1.776   1.736   4.810
  470SOL    HW2 1592   1.934   1.741   4.851
  471SOL     OW 1593   4.211   2.047   1.176
  471SOL    HW1 1594   4.179   1.996   1.096
  471SOL    HW2 1595   4.311   2.046   1.179
  472SOL     OW 1596   3.139   4.142   0.385
  472SOL    HW1 1597   3.112   4.188   0.470
  472SOL    HW2 1598   3.066   4.080   0.357
  473SOL     OW 1599   4.712   0.502   0.216
  473SOL    HW1 1600   4.781   0.568   0.247
  473SOL    HW2 1601   4.644   0.550   0.161
  474SOL     OW 1602   1.612   0.233   3.895
  474SOL    HW1 1603   1.565   0.159   3.847
  474SOL    HW2 1604   1.636   0.202   3.987
  475SOL     OW 1605   4.448   1.464   3.623
  475SOL    HW1 1606   4.506   1.384   3.642
  475SOL    HW2 1607   4.355   1.433   3.604
  476SOL     OW 1608   2.006   1.839   3.885
  476SOL    HW1 1609   1.913   1.801   3.883
  476SOL    HW2 1610   2.070   1.766   3.908
  477SOL     OW 1611   1.093   1.128   2.079
  477SOL    HW1 1612   1.171   1.191   2.077
  477SOL    HW2 1613   1.127   1.034   2.083
  478SOL     OW 1614   2.549   0.933   3.321
  478SOL    HW1 1615   2.638   0.947   3.276
  478SOL    HW2 1616   2.492   0.875   3.263
  479SOL     OW 1617   3.373   3.401   0.607
  479SOL    HW1 1618   3.377   3.364   0.700
  479SOL    HW2 1619   3.393   3.329   0.541
  480SOL     OW 1620   1.398   3.873   4.758
  480SOL    HW1 1621   1.327   3.832   4.702
  480SOL    HW2 1622   1.356   3.925   4.832
  481SOL     OW 1623   4.314   3.440   1.672
  481SOL    HW1 1624   4.403   3.479   1.695
  481SOL    HW2 1625   4.253   3.513   1.641
  482SOL     OW 1626   2.034   1.463   3.369
  482SOL    HW1 1627   1.966   1.503   3.308
  482SOL    HW2 1628   1.988   1.409   3.439
  483SOL     OW 1629   4.801   2.906   2.274
  483SOL    HW1 1630   4.725   2.878   2.216
  483SOL    HW2 1631   4.774   2.984   2.330
  484SOL     OW 1632   4.367   1.389   0.240
  484SOL    HW1 1633   4.383   1.467   0.179
  484SOL    HW2 1634   4.317   1.422   0.321
  485SOL     OW 1635   3.712   2.872   4.540
  485SOL    HW1 1636   3.617   2.843   4.527
  485SOL    HW2 1637   3.771   2.792   4.542
  486SOL     OW 1638   3.861   2.808   3.279
  486SOL    HW1 1639   3.792   2.845   3.217
  486SOL    HW2 1640   3.816   2.751   3.348
  487SOL     OW 1641   3.802   3.513   3.552
  487SOL    HW1 1642   3.853   3.428   3.563
  487SOL    HW2 1643   3.866   3.589   3.540
  488SOL     OW 1644   2.324   1.807   3.083
  488SOL    HW1 1645   2.268   1.813   3.000
  488SOL    HW2 1646   2.390   1.733   3.073
  489SOL     OW 1647   0.989   4.097   3.393
  489SOL    HW1 1648   0.953   4.005   3.402
  489SOL    HW2 1649   1.056   4.114   3.465
  490SOL     OW 1650   1.513   4.452   4.194
  490SOL    HW1 1651   1.605   4.439   4.230
  490SOL    HW2 1652   1.463   4.366   4.197
  491SOL     OW 1653   3.994   3.857   2.186
  491SOL    HW1 1654   3.977   3.955   2.179
  491SOL    HW2 1655   3.911   3.807   2.161
  492SOL     OW 1656   2.819   0.917   4.815
  492SOL    HW1 1657   2.795   0.830   4.773
  492SOL    HW2 1658   2.912   0.912   4.850
  493SOL     OW 1659   1.522   2.150   3.296
  493SOL    HW1 1660   1.448   2.218   3.298
  493SOL    HW2 1661   1.606   2.192   3.331
  494SOL     OW 1662   2.741   4.450   0.384
  494SOL    HW1 1663   2.643   4.459   0.400
  494SOL    HW2 1664   2.767   4.511   0.308
  495SOL     OW 1665   1.353   3.927   0.728
  495SOL    HW1 1666   1.378   3.840   0.684
  495SOL    HW2 1667   1.345   3.913   0.826
  496SOL     OW 1668   1.346   0.726   2.464
  496SOL    HW1 1669   1.346   0.630   2.491
  496SOL    HW2 1670   1.252   0.754   2.443
  497SOL     OW 1671   3.952   4.137   2.462
  497SOL    HW1 1672   4.050   4.117   2.452
  497SOL    HW2 1673   3.938   4.236   2.462
  498SOL     OW 1674   3.913   0.462   1.639
  498SOL    HW1 1675   3.839   0.529   1.626
  498SOL    HW2 1676   3.999   0.502   1.609
  499SOL     OW 1677   1.950   2.810   3.411
  499SOL    HW1 1678   2.045   2.785   3.427
  499SOL    HW2 1679   1.898   2.728   3.388
  500SOL     OW 1680   1.656   2.721   4.037
  500SOL    HW1 1681   1.577   2.660   4.035
  500SOL    HW2 1682   1.740   2.666   4.042
  501SOL     OW 1683   2.103   2.615   0.399
  501SOL    HW1 1684   2.072   2.709   0.409
  501SOL    HW2 1685   2.025   2.556   0.381
  502SOL     OW 1686   2.687   1.044   4.121
  502SOL    HW1 1687   2.670   1.142   4.111
  502SOL    HW2 1688   2.782   1.024   4.094
  503SOL     OW 1689   4.506   1.671   4.462
  503SOL    HW1 1690   4.563   1.721   4.397
  503SOL    HW2 1691   4.479   1.584   4.422
  504SOL     OW 1692   4.340   0.606   4.496
  504SOL    HW1 1693   4.265   0.542   4.481
  504SOL    HW2 1694   4.322   0.659   4.580
  505SOL     OW 1695   2.266   3.026   0.253
  505SOL    HW1 1696   2.321   2.954   0.211
  505SOL    HW2 1697   2.225   2.992   0.338
  506SOL     OW 1698   1.976   0.845   4.229
  506SOL    HW1 1699   1.916   0.768   4.206
  506SOL    HW2 1700   1.954   0.923   4.172
  507SOL     OW 1701   2.340   2.707   0.562
  507SOL    HW1 1702   2.283   2.753   0.495
  507SOL    HW2 1703   2.292   2.703   0.650
  508SOL     OW 1704   2.193   0.885   3.480
  508SOL    HW1 1705   2.105   0.928   3.457
  508SOL    HW2 1706   2.219   0.911   3.573
  509SOL     OW 1707   1.822   3.205   0.710
  509SOL    HW1 1708   1.919   3.214   0.732
  509SOL    HW2 1709   1.801   3.109   0.689
  510SOL     OW 1710   3.456   3.577   3.326
  510SOL    HW1 1711   3.386   3.527   3.377
  510SOL    HW2 1712   3.436   3.675   3.330
  511SOL     OW 1713   3.083   4.833   1.477
  511SOL    HW1 1714   3.178   4.846   1.447
  511SOL    HW2 1715   3.074   4.743   1.519
  512SOL     OW 1716   0.892   3.526   4.058
  512SOL    HW1 1717   0.966   3.592   4.075
  512SOL    HW2 1718   0.840   3.556   3.978
  513SOL     OW 1719   1.185   4.816   4.163
  513SOL    HW1 1720   1.164   4.723   4.135
  513SOL    HW2 1721   1.111   4.851   4.221
  514SOL     OW 1722   2.386   0.537   3.594
  514SOL    HW1 1723   2.427   0.528   3.684
  514SOL    HW2 1724   2.426   0.470   3.532
  515SOL     OW 1725   0.539   1.720   3.953
  515SOL    HW1 1726   0.534   1.629   3.993
  515SOL    HW2 1727   0.455   1.770   3.975
  516SOL     OW 1728   3.774   2.039   1.768
  516SOL    HW1 1729   3.762   1.955   1.715
  516SOL    HW2 1730   3.867   2.042   1.804
  517SOL     OW 1731   4.262   4.308   1.591
  517SOL    HW1 1732   4.175   4.260   1.596
  517SOL    HW2 1733   4.296   4.323   1.684
  518SOL     OW 1734   3.710   3.975   1.857
  518SOL    HW1 1735   3.697   4.064   1.899
  518SOL    HW2 1736   3.806   3.964   1.831
  519SOL     OW 1737   1.414   4.528   3.889
  519SOL    HW1 1738   1.341   4.596   3.889
  519SOL    HW2 1739   1.502   4.576   3.894
  520SOL     OW 1740   3.368   3.987   0.940
  520SOL    HW1 1741   3.456   4.034   0.931
  520SOL    HW2 1742   3.294   4.054   0.935
  521SOL     OW 1743   4.658   0.780   4.828
  521SOL    HW1 1744   4.713   0.698   4.809
  521SOL    HW2 1745   4.565   0.752   4.850
  522SOL     OW 1746   2.513   2.540   2.102
  522SOL    HW1 1747   2.416   2.548   2.122
  522SOL    HW2 1748   2.544   2.623   2.055
  523SOL     OW 1749   0.581   2.626   3.724
  523SOL    HW1 1750   0.645   2.644   3.799
  523SOL    HW2 1751   0.575   2.527   3.710
  524SOL     OW 1752   3.019   2.954   2.886
  524SOL    HW1 1753   3.067   2.909   2.962
  524SOL    HW2 1754   3.087   2.987   2.820
  525SOL     OW 1755   1.652   0.224   2.267
  525SOL    HW1 1756   1.732   0.233   2.325
  525SOL    HW2 1757   1.595   0.149   2.301
  526SOL     OW 1758   3.897   3.985   0.214
  526SOL    HW1 1759   3.958   4.005   0.291
  526SOL    HW2 1760   3.945   3.926   0.149
  527SOL     OW 1761   0.649   2.789   2.297
  527SOL    HW1 1762   0.553   2.790   2.323
  527SOL    HW2 1763   0.673   2.878   2.257
  528SOL     OW 1764   2.086   1.811   4.516
  528SOL    HW1 1765   2.033   1.838   4.596
  528SOL    HW2 1766   2.039   1.736   4.469
  529SOL     OW 1767   3.996   0.184   4.738
  529SOL    HW1 1768   4.084   0.150   4.771
  529SOL    HW2 1769   3.980   0.150   4.645
  530SOL     OW 1770   1.372   2.926   0.798
  530SOL    HW1 1771   1.453   2.874   0.827
  530SOL    HW2 1772   1.399   2.995   0.732
  531SOL     OW 1773   1.439   0.403   2.175
  531SOL    HW1 1774   1.488   0.365   2.097
  531SOL    HW2 1775   1.414   0.329   2.238
  532SOL     OW 1776   3.596   1.052   4.282
  532SOL    HW1 1777   3.631   1.127   4.227
  532SOL    HW2 1778   3.672   0.991   4.306
  533SOL     OW 1779   1.546   1.176   1.333
  533SOL    HW1 1780   1.560   1.077   1.323
  533SOL    HW2 1781   1.634   1.221   1.345
  534SOL     OW 1782   4.130   0.282   1.063
  534SOL    HW1 1783   4.160   0.229   1.142
  534SOL    HW2 1784   4.208   0.297   1.003
  535SOL     OW 1785   3.549   4.046   4.503
  535SOL    HW1 1786   3.629   4.092   4.542
  535SOL    HW2 1787   3.580   3.976   4.439
  536SOL     OW 1788   2.578   0.555   0.489
  536SOL    HW1 1789   2.677   0.572   0.484
  536SOL    HW2 1790   2.563   0.456   0.492
  537SOL     OW 1791   0.810   2.391   3.849
  537SOL    HW1 1792   0.801   2.409   3.947
  537SOL    HW2 1793   0.813   2.478   3.800
  538SOL     OW 1794   3.157   1.713   2.750
  538SOL    HW1 1795   3.183   1.662   2.832
  538SOL    HW2 1796   3.161   1.651   2.671
  539SOL     OW 1797   3.134   4.671   1.228
  539SOL    HW1 1798   3.048   4.627   1.253
  539SOL    HW2 1799   3.183   4.614   1.162
  540SOL     OW 1800   4.172   3.712   4.479
  540SOL    HW1 1801   4.235   3.784   4.508
  540SOL    HW2 1802   4.197   3.627   4.526
  541SOL     OW 1803   2.875   3.228   4.340
  541SOL    HW1 1804   2.877   3.161   4.266
  541SOL    HW2 1805   2.804   3.201   4.406
  542SOL     OW 1806   3.267   4.508   3.324
  542SOL    HW1 1807   3.334   4.434   3.323
  542SOL    HW2 1808   3.315   4.595   3.327
  543SOL     OW 1809   3.355   2.189   4.360
  543SOL    HW1 1810   3.401   2.142   4.284
  543SOL    HW2 1811   3.368   2.288   4.349
  544SOL     OW 1812   4.518   1.933   4.765
  544SOL    HW1 1813   4.423   1.964   4.772
  544SOL    HW2 1814   4.575   1.995   4.818
  545SOL     OW 1815   2.089   2.347   4.178
  545SOL    HW1 1816   2.040   2.359   4.265
  545SOL    HW2 1817   2.071   2.255   4.143
  546SOL     OW 1818   0.999   2.191   3.226
  546SOL    HW1 1819   1.037   2.164   3.314
  546SOL    HW2 1820   1.066   2.170   3.154
  547SOL     OW 1821   0.986   4.721   4.383
  547SOL    HW1 1822   0.941   4.802   4.421
  547SOL    HW2 1823   1.085   4.727   4.401
  548SOL     OW 1824   3.299   1.285   2.511
  548SOL    HW1 1825   3.259   1.201   2.473
  548SOL    HW2 1826   3.279   1.361   2.450
  549SOL     OW 1827   1.481   0.881   2.073
  549SOL    HW1 1828   1.538   0.813   2.119
  549SOL    HW2 1829   1.524   0.971   2.082
  550SOL     OW 1830   3.690   1.209   0.456
  550SOL    HW1 1831   3.712   1.130   0.399
  550SOL    HW2 1832   3.773   1.242   0.499
  551SOL     OW 1833   1.883   4.121   1.045
  551SOL    HW1 1834   1.896   4.210   1.001
  551SOL    HW2 1835   1.847   4.134   1.137
  552SOL     OW 1836   2.000   4.474   1.230
  552SOL    HW1 1837   2.092   4.510   1.242
  552SOL    HW2 1838   2.006   4.383   1.189
  553SOL     OW 1839   1.034   0.332   3.320
  553SOL    HW1 1840   1.077   0.287   3.241
  553SOL    HW2 1841   1.039   0.272   3.399
  554SOL     OW 1842   0.413   4.490   0.500
  554SOL    HW1 1843   0.502   4.464   0.537
  554SOL    HW2 1844   0.416   4.586   0.470
  555SOL     OW 1845   1.154   4.213   4.779
  555SOL    HW1 1846   1.224   4.219   4.851
  555SOL    HW2 1847   1.111   4.123   4.782
  556SOL     OW 1848   4.077   3.866   4.207
  556SOL    HW1 1849   3.990   3.915   4.195
  556SOL    HW2 1850   4.150   3.933   4.222
  557SOL     OW 1851   0.402   4.796   0.757
  557SOL    HW1 1852   0.424   4.743   0.839
  557SOL    HW2 1853   0.448   4.754   0.678
  558SOL     OW 1854   3.556   3.919   3.565
  558SOL    HW1 1855   3.540   3.823   3.545
  558SOL    HW2 1856   3.545   3.972   3.481
  559SOL     OW 1857   1.448   3.408   4.153
  559SOL    HW1 1858   1.543   3.407   4.182
  559SOL    HW2 1859   1.415   3.503   4.149
  560SOL     OW 1860   1.926   1.695   2.647
  560SOL    HW1 1861   1.873   1.770   2.606
  560SOL    HW2 1862   1.914   1.613   2.592
  561SOL     OW 1863   1.323   4.698   2.665
  561SOL    HW1 1864   1.408   4.666   2.623
  561SOL    HW2 1865   1.273   4.755   2.600
  562SOL     OW 1866   0.824   1.616   4.301
  562SOL    HW1 1867   0.735   1.594   4.340
  562SOL    HW2 1868   0.873   1.531   4.282
  563SOL     OW 1869   2.260   3.736   4.751
  563SOL    HW1 1870   2.272   3.734   4.850
  563SOL    HW2 1871   2.338   3.783   4.710
  564SOL     OW 1872   4.251   2.359   1.178
  564SOL    HW1 1873   4.236   2.265   1.208
  564SOL    HW2 1874   4.187   2.381   1.104
  565SOL     OW 1875   2.166   1.294   3.045
  565SOL    HW1 1876   2.088   1.235   3.027
  565SOL    HW2 1877   2.180   1.302   3.144
  566SOL     OW 1878   4.655   1.893   3.571
  566SOL    HW1 1879   4.745   1.924   3.539
  566SOL    HW2 1880   4.656   1.793   3.577
  567SOL     OW 1881   2.895   4.431   2.312
  567SOL    HW1 1882   2.806   4.478   2.310
  567SOL    HW2 1883   2.885   4.341   2.272
  568SOL     OW 1884   2.627   1.477   1.169
  568SOL    HW1 1885   2.675   1.492   1.255
  568SOL    HW2 1886   2.561   1.403   1.180
  569SOL     OW 1887   1.006   3.104   3.700
  569SOL    HW1 1888   0.912   3.138   3.699
  569SOL    HW2 1889   1.067   3.180   3.725
  570SOL     OW 1890   3.136   0.461   3.725
  570SOL    HW1 1891   3.218   0.425   3.771
  570SOL    HW2 1892   3.164   0.516   3.647
  571SOL     OW 1893   0.515   3.592   3.839
  571SOL    HW1 1894   0.599   3.539   3.855
  571SOL    HW2 1895   0.439   3.546   3.884
  572SOL     OW 1896   1.849   4.168   0.691
  572SOL    HW1 1897   1.846   4.074   0.657
  572SOL    HW2 1898   1.942   4.191   0.718
  573SOL     OW 1899   3.885   0.811   3.172
  573SOL    HW1 1900   3.852   0.752   3.099
  573SOL    HW2 1901   3.819   0.811   3.247
  574SOL     OW 1902   3.900   2.056   4.704
  574SOL    HW1 1903   3.849   2.129   4.657
  574SOL    HW2 1904   3.866   1.967   4.673
  575SOL     OW 1905   2.874   2.014   3.691
  575SOL    HW1 1906   2.931   2.044   3.615
  575SOL    HW2 1907   2.932   1.982   3.765
  576SOL     OW 1908   1.250   3.668   3.869
  576SOL    HW1 1909   1.285   3.699   3.958
  576SOL    HW2 1910   1.161   3.710   3.852
  577SOL     OW 1911   3.861   2.022   2.947
  577SOL    HW1 1912   3.927   2.016   3.022
  577SOL    HW2 1913   3.901   1.983   2.864
  578SOL     OW 1914   3.043   0.370   3.061
  578SOL    HW1 1915   3.124   0.394   3.114
  578SOL    HW2 1916   2.966   0.424   3.093
  579SOL     OW 1917   3.679   4.011   2.623
  579SOL    HW1 1918   3.723   4.081   2.679
  579SOL    HW2 1919   3.580   4.024   2.624
  580SOL     OW 1920   4.350   2.180   3.741
  580SOL    HW1 1921   4.287   2.245   3.699
  580SOL    HW2 1922   4.304   2.134   3.816
  581SOL     OW 1923   4.152   2.735   1.794
  581SOL    HW1 1924   4.223   2.804   1.782
  581SOL    HW2 1925   4.069   2.778   1.829
  582SOL     OW 1926   1.760   1.680   2.826
  582SOL    HW1 1927   1.825   1.756   2.832
  582SOL    HW2 1928   1.667   1.715   2.840
  583SOL     OW 1929   2.743   2.654   3.973
  583SOL    HW1 1930   2.665   2.596   3.995
  583SOL    HW2 1931   2.823   2.624   4.024
  584SOL     OW 1932   2.394   3.414   3.402
  584SOL    HW1 1933   2.295   3.420   3.395
  584SOL    HW2 1934   2.434   3.505   3.389
  585SOL     OW 1935   2.563   0.972   2.945
  585SOL    HW1 1936   2.596   0.952   3.038
  585SOL    HW2 1937   2.600   1.060   2.916
  586SOL     OW 1938   1.124   0.651   0.844
  586SOL    HW1 1939   1.091   0.557   0.856
  586SOL    HW2 1940   1.224   0.649   0.836
  587SOL     OW 1941   3.300   2.020   0.333
  587SOL    HW1 1942   3.343   1.978   0.254
  587SOL    HW2 1943   3.201   2.029   0.317
  588SOL     OW 1944   3.390   2.100   1.825
  588SOL    HW1 1945   3.454   2.176   1.813
  588SOL    HW2 1946   3.439   2.014   1.817
  589SOL     OW 1947   2.441   3.204   1.765
  589SOL    HW1 1948   2.498   3.128   1.735
  589SOL    HW2 1949   2.497   3.268   1.817
  590SOL     OW 1950   1.828   3.473   4.612
  590SOL    HW1 1951   1.839   3.514   4.702
  590SOL    HW2 1952   1.800   3.377   4.622
  591SOL     OW 1953   0.956   2.929   3.950
  591SOL    HW1 1954   0.857   2.937   3.941
  591SOL    HW2 1955   1.001   2.996   3.892
  592SOL     OW 1956   3.640   3.734   3.747
  592SOL    HW1 1957   3.717   3.676   3.721
  592SOL    HW2 1958   3.560   3.677   3.767
  593SOL     OW 1959   1.324   4.343   2.517
  593SOL    HW1 1960   1.378   4.259   2.509
  593SOL    HW2 1961   1.379   4.414   2.560
  594SOL     OW 1962   1.392   3.985   4.047
  594SOL    HW1 1963   1.358   4.071   4.086
  594SOL    HW2 1964   1.315   3.924   4.030
  595SOL     OW 1965   0.640   4.409   3.907
  595SOL    HW1 1966   0.600   4.484   3.856
  595SOL    HW2 1967   0.669   4.338   3.843
  596SOL     OW 1968   0.965   3.899   3.613
  596SOL    HW1 1969   0.936   3.942   3.699
  596SOL    HW2 1970   0.996   3.806   3.632
  597SOL     OW 1971   2.126   1.430   1.523
  597SOL    HW1 1972   2.196   1.404   1.589
  597SOL    HW2 1973   2.161   1.414   1.430
  598SOL     OW 1974   2.975   4.674   3.904
  598SOL    HW1 1975   3.074   4.659   3.906
  598SOL    HW2 1976   2.935   4.619   3.831
  599SOL     OW 1977   1.493   1.442   4.589
  599SOL    HW1 1978   1.576   1.498   4.589
  599SOL    HW2 1979   1.413   1.502   4.586
  600SOL     OW 1980   0.662   0.801   3.011
  600SOL    HW1 1981   0.734   0.856   2.968
  600SOL    HW2 1982   0.703   0.718   3.048
  601SOL     OW 1983   2.515   2.367   3.064
  601SOL    HW1 1984   2.457   2.292   3.033
  601SOL    HW2 1985   2.466   2.453   3.055
  602SOL     OW 1986   0.959   3.556   4.456
  602SOL    HW1 1987   0.944   3.627   4.525
  602SOL    HW2 1988   1.047   3.572   4.412
  603SOL     OW 1989   3.112   2.638   0.898
  603SOL    HW1 1990   3.133   2.736   0.899
  603SOL    HW2 1991   3.153   2.595   0.978
  604SOL     OW 1992   3.825   1.341   4.547
  604SOL    HW1 1993   3.801   1.347   4.450
  604SOL    HW2 1994   3.826   1.244   4.574
  605SOL     OW 1995   1.847   3.837   4.397
  605SOL    HW1 1996   1.806   3.768   4.457
  605SOL    HW2 1997   1.932   3.801   4.358
  606SOL     OW 1998   1.403   4.336   3.289
  606SOL    HW1 1999   1.381   4.242   3.318
  606SOL    HW2 2000   1.320   4.391   3.293
  607SOL     OW 2001   0.925   0.446   0.421
  607SOL    HW1 2002   1.024   0.449   0.435
  607SOL    HW2 2003   0.902   0.489   0.334
  608SOL     OW 2004   1.411   2.650   0.259
  608SOL    HW1 2005   1.340   2.579   0.258
  608SOL    HW2 2006   1.501   2.606   0.251
  609SOL     OW 2007   1.246   4.042   3.788
  609SOL    HW1 2008   1.266   4.030   3.691
  609SOL    HW2 2009   1.228   3.953   3.830
  610SOL     OW 2010   3.730   3.707   1.588
  610SOL    HW1 2011   3.744   3.608   1.579
  610SOL    HW2 2012   3.818   3.753   1.578
  611SOL     OW 2013   4.594   1.418   1.237
  611SOL    HW1 2014   4.551   1.502   1.202
  611SOL    HW2 2015   4.525   1.364   1.285
  612SOL     OW 2016   1.642   1.522   3.081
  612SOL    HW1 2017   1.658   1.548   3.176
  612SOL    HW2 2018   1.588   1.437   3.080
  613SOL     OW 2019   2.837   1.016   1.538
  613SOL    HW1 2020   2.833   1.014   1.438
  613SOL    HW2 2021   2.872   0.928   1.571
  614SOL     OW 2022   4.361   1.450   3.906
  614SOL    HW1 2023   4.445   1.440   3.960
  614SOL    HW2 2024   4.312   1.531   3.938
  615SOL     OW 2025   0.585   2.198   2.527
  615SOL    HW1 2026   0.630   2.109   2.535
  615SOL    HW2 2027   0.651   2.270   2.548
  616SOL     OW 2028   2.367   2.449   2.840
  616SOL    HW1 2029   2.384   2.351   2.829
  616SOL    HW2 2030   2.454   2.497   2.831
  617SOL     OW 2031   2.061   3.933   1.406
  617SOL    HW1 2032   2.110   3.862   1.455
  617SOL    HW2 2033   2.117   4.016   1.402
  618SOL     OW 2034   4.459   4.739   2.689
  618SOL    HW1 2035   4.424   4.801   2.759
  618SOL    HW2 2036   4.383   4.704   2.634
  619SOL     OW 2037   3.358   1.694   0.752
  619SOL    HW1 2038   3.328   1.598   0.749
  619SOL    HW2 2039   3.438   1.701   0.811
  620SOL     OW 2040   1.872   2.397   1.952
  620SOL    HW1 2041   1.773   2.397   1.967
  620SOL    HW2 2042   1.904   2.303   1.945
  621SOL     OW 2043   2.238   1.535   0.417
  621SOL    HW1 2044   2.322   1.487   0.443
  621SOL    HW2 2045   2.259   1.632   0.405
  622SOL     OW 2046   0.458   3.474   4.636
  622SOL    HW1 2047   0.514   3.396   4.664
  622SOL    HW2 2048   0.371   3.440   4.599
  623SOL     OW 2049   1.022   4.808   1.532
  623SOL    HW1 2050   0.933   4.850   1.548
  623SOL    HW2 2051   1.021   4.715   1.568
  624SOL     OW 2052   3.242   3.929   4.092
  624SOL    HW1 2053   3.158   3.984   4.089
  624SOL    HW2 2054   3.309   3.969   4.030
  625SOL     OW 2055   0.922   3.342   4.420
  625SOL    HW1 2056   1.022   3.335   4.419
  625SOL    HW2 2057   0.883   3.250   4.430
  626SOL     OW 2058   1.355   3.279   4.794
  626SOL    HW1 2059   1.445   3.294   4.753
  626SOL    HW2 2060   1.288   3.339   4.750
  627SOL     OW 2061   1.817   4.329   0.301
  627SOL    HW1 2062   1.876   4.251   0.279
  627SOL    HW2 2063   1.723   4.296   0.311
  628SOL     OW 2064   1.165   1.062   4.174
  628SOL    HW1 2065   1.164   1.143   4.232
  628SOL    HW2 2066   1.260   1.028   4.166
  629SOL     OW 2067   2.524   3.313   0.241
  629SOL    HW1 2068   2.473   3.399   0.243
  629SOL    HW2 2069   2.464   3.238   0.269
  630SOL     OW 2070   0.257   3.607   0.912
  630SOL    HW1 2071   0.174   3.613   0.856
  630SOL    HW2 2072   0.335   3.588   0.853
  631SOL     OW 2073   2.033   3.216   1.341
  631SOL    HW1 2074   1.971   3.141   1.364
  631SOL    HW2 2075   2.023   3.288   1.409
  632SOL     OW 2076   1.855   2.717   2.392
  632SOL    HW1 2077   1.925   2.752   2.454
  632SOL    HW2 2078   1.788   2.789   2.374
  633SOL     OW 2079   3.489   3.015   4.276
  633SOL    HW1 2080   3.578   2.980   4.247
  633SOL    HW2 2081   3.462   2.970   4.361
  634SOL     OW 2082   1.862   2.831   1.581
  634SOL    HW1 2083   1.888   2.735   1.575
  634SOL    HW2 2084   1.763   2.838   1.582
  635SOL     OW 2085   2.288   2.806   1.749
  635SOL    HW1 2086   2.324   2.822   1.841
  635SOL    HW2 2087   2.236   2.720   1.748
  636SOL     OW 2088   0.748   2.648   0.234
  636SOL    HW1 2089   0.744   2.626   0.331
  636SOL    HW2 2090   0.836   2.692   0.214
  637SOL     OW 2091   3.848   4.360   2.922
  637SOL    HW1 2092   3.826   4.281   2.864
  637SOL    HW2 2093   3.784   4.434   2.902
  638SOL     OW 2094   4.492   4.053   0.189
  638SOL    HW1 2095   4.418   3.988   0.207
  638SOL    HW2 2096   4.574   4.003   0.163
  639SOL     OW 2097   1.175   2.664   0.744
  639SOL    HW1 2098   1.262   2.614   0.744
  639SOL    HW2 2099   1.100   2.598   0.751
  640SOL     OW 2100   1.644   4.176   4.356
  640SOL    HW1 2101   1.573   4.245   4.346
  640SOL    HW2 2102   1.734   4.219   4.340
  641SOL     OW 2103   1.749   2.412   1.739
  641SOL    HW1 2104   1.780   2.320   1.763
  641SOL    HW2 2105   1.826   2.464   1.703
  642SOL     OW 2106   4.280   2.748   3.134
  642SOL    HW1 2107   4.299   2.722   3.039
  642SOL    HW2 2108   4.367   2.769   3.179
  643SOL     OW 2109   2.001   4.047   1.628
  643SOL    HW1 2110   2.052   4.130   1.647
  643SOL    HW2 2111   1.927   4.068   1.564
  644SOL     OW 2112   3.661   2.653   1.658
  644SOL    HW1 2113   3.573   2.681   1.695
  644SOL    HW2 2114   3.681   2.707   1.576
  645SOL     OW 2115   0.451   1.771   1.859
  645SOL    HW1 2116   0.468   1.672   1.858
  645SOL    HW2 2117   0.538   1.819   1.867
  646SOL     OW 2118   4.204   4.091   0.602
  646SOL    HW1 2119   4.163   3.999   0.600
  646SOL    HW2 2120   4.286   4.091   0.545
  647SOL     OW 2121   4.396   0.306   4.728
  647SOL    HW1 2122   4.442   0.239   4.670
  647SOL    HW2 2123   4.304   0.272   4.752
  648SOL     OW 2124   2.382   3.924   2.796
  648SOL    HW1 2125   2.409   3.844   2.850
  648SOL    HW2 2126   2.294   3.905   2.753
  649SOL     OW 2127   0.467   4.221   4.371
  649SOL    HW1 2128   0.470   4.321   4.370
  649SOL    HW2 2129   0.372   4.191   4.368
  650SOL     OW 2130   3.630   3.380   0.150
  650SOL    HW1 2131   3.590   3.472   0.148
  650SOL    HW2 2132   3.557   3.312   0.154
  651SOL     OW 2133   4.321   4.409   3.845
  651SOL    HW1 2134   4.312   4.310   3.854
  651SOL    HW2 2135   4.230   4.450   3.846
  652SOL     OW 2136   3.427   2.030   2.041
  652SOL    HW1 2137   3.347   2.090   2.041
  652SOL    HW2 2138   3.510   2.086   2.040
  653SOL     OW 2139   3.192   1.340   2.893
  653SOL    HW1 2140   3.253   1.414   2.865
  653SOL    HW2 2141   3.111   1.379   2.937
  654SOL     OW 2142   2.076   2.725   0.921
  654SOL    HW1 2143   1.997   2.781   0.945
  654SOL    HW2 2144   2.158   2.762   0.966
  655SOL     OW 2145   1.268   0.729   4.185
  655SOL    HW1 2146   1.211   0.648   4.171
  655SOL    HW2 2147   1.209   0.810   4.187
  656SOL     OW 2148   3.741   3.039   2.243
  656SOL    HW1 2149   3.657   3.089   2.222
  656SOL    HW2 2150   3.727   2.942   2.226
  657SOL     OW 2151   1.312   2.564   4.263
  657SOL    HW1 2152   1.227   2.532   4.303
  657SOL    HW2 2153   1.362   2.619   4.331
  658SOL     OW 2154   3.110   2.090   3.494
  658SOL    HW1 2155   3.129   2.014   3.432
  658SOL    HW2 2156   3.147   2.068   3.585
  659SOL     OW 2157   0.198   3.700   1.124
  659SOL    HW1 2158   0.296   3.709   1.138
  659SOL    HW2 2159   0.155   3.791   1.130
  660SOL     OW 2160   2.615   2.892   0.265
  660SOL    HW1 2161   2.548   2.841   0.211
  660SOL    HW2 2162   2.597   2.990   0.256
  661SOL     OW 2163   0.399   2.094   4.381
  661SOL    HW1 2164   0.332   2.021   4.396
  661SOL    HW2 2165   0.485   2.068   4.426
  662SOL     OW 2166   1.950   4.433   3.142
  662SOL    HW1 2167   1.854   4.410   3.156
  662SOL    HW2 2168   2.003   4.349   3.131
  663SOL     OW 2169   3.403   3.717   4.272
  663SOL    HW1 2170   3.304   3.728   4.274
  663SOL    HW2 2171   3.446   3.807   4.272
  664SOL     OW 2172   1.266   2.653   3.915
  664SOL    HW1 2173   1.201   2.594   3.868
  664SOL    HW2 2174   1.345   2.599   3.943
  665SOL     OW 2175   0.609   4.501   1.565
  665SOL    HW1 2176   0.702   4.527   1.538
  665SOL    HW2 2177   0.614   4.428   1.634
  666SOL     OW 2178   3.980   1.678   4.708
  666SOL    HW1 2179   3.953   1.759   4.656
  666SOL    HW2 2180   4.079   1.678   4.719
  667SOL     OW 2181   3.004   3.324   3.868
  667SOL    HW1 2182   3.033   3.419   3.875
  667SOL    HW2 2183   3.040   3.284   3.784
  668SOL     OW 2184   1.182   4.530   4.562
  668SOL    HW1 2185   1.155   4.622   4.589
  668SOL    HW2 2186   1.280   4.529   4.540
  669SOL     OW 2187   0.754   0.443   3.048
  669SOL    HW1 2188   0.813   0.521   3.030
  669SOL    HW2 2189   0.801   0.359   3.020
  670SOL     OW 2190   0.931   3.199   2.180
  670SOL    HW1 2191   1.026   3.165   2.177
  670SOL    HW2 2192   0.870   3.124   2.205
  671SOL     OW 2193   3.342   1.083   1.355
  671SOL    HW1 2194   3.295   1.131   1.430
  671SOL    HW2 2195   3.435   1.062   1.384
  672SOL     OW 2196   3.138   4.439   2.516
  672SOL    HW1 2197   3.205   4.365   2.514
  672SOL    HW2 2198   3.087   4.439   2.430
  673SOL     OW 2199   2.781   4.708   4.358
  673SOL    HW1 2200   2.874   4.687   4.387
  673SOL    HW2 2201   2.726   4.624   4.359
  674SOL     OW 2202   2.737   2.379   3.037
  674SOL    HW1 2203   2.721   2.474   3.064
  674SOL    HW2 2204   2.726   2.370   2.938
  675SOL     OW 2205   3.617   2.745   0.408
  675SOL    HW1 2206   3.534   2.697   0.379
  675SOL    HW2 2207   3.696   2.700   0.366
  676SOL     OW 2208   1.297   0.380   4.017
  676SOL    HW1 2209   1.389   0.347   4.040
  676SOL    HW2 2210   1.304   0.449   3.944
  677SOL     OW 2211   0.150   1.189   0.731
  677SOL    HW1 2212   0.241   1.228   0.719
  677SOL    HW2 2213   0.157   1.089   0.730
  678SOL     OW 2214   2.995   3.775   2.782
  678SOL    HW1 2215   3.015   3.839   2.707
  678SOL    HW2 2216   2.897   3.780   2.804
  679SOL     OW 2217   4.299   0.375   1.767
  679SOL    HW1 2218   4.354   0.455   1.741
  679SOL    HW2 2219   4.335   0.336   1.851
  680SOL     OW 2220   0.319   3.767   1.851
  680SOL    HW1 2221   0.274   3.685   1.817
  680SOL    HW2 2222   0.403   3.741   1.899
  681SOL     OW 2223   3.549   4.309   3.069
  681SOL    HW1 2224   3.642   4.336   3.044
  681SOL    HW2 2225   3.536   4.212   3.050
  682SOL     OW 2226   0.862   3.393   1.292
  682SOL    HW1 2227   0.952   3.434   1.304
  682SOL    HW2 2228   0.873   3.298   1.262
  683SOL     OW 2229   0.564   3.407   2.243
  683SOL    HW1 2230   0.643   3.469   2.241
  683SOL    HW2 2231   0.503   3.428   2.167
  684SOL     OW 2232   2.292   3.951   3.007
  684SOL    HW1 2233   2.205   3.902   3.004
  684SOL    HW2 2234   2.275   4.049   3.012
  685SOL     OW 2235   3.822   2.357   4.250
  685SOL    HW1 2236   3.849   2.306   4.168
  685SOL    HW2 2237   3.861   2.313   4.331
  686SOL     OW 2238   2.744   2.227   1.900
  686SOL    HW1 2239   2.802   2.182   1.832
  686SOL    HW2 2240   2.737   2.324   1.878
  687SOL     OW 2241   1.217   2.820   2.191
  687SOL    HW1 2242   1.131   2.807   2.143
  687SOL    HW2 2243   1.215   2.908   2.239
  688SOL     OW 2244   2.517   0.828   3.743
  688SOL    HW1 2245   2.446   0.758   3.742
  688SOL    HW2 2246   2.607   0.784   3.745
  689SOL     OW 2247   2.604   2.141   1.316
  689SOL    HW1 2248   2.664   2.072   1.357
  689SOL    HW2 2249   2.548   2.098   1.246
  690SOL     OW 2250   2.160   0.226   4.268
  690SOL    HW1 2251   2.130   0.153   4.329
  690SOL    HW2 2252   2.087   0.247   4.203
  691SOL     OW 2253   2.856   1.835   0.516
  691SOL    HW1 2254   2.943   1.791   0.496
  691SOL    HW2 2255   2.782   1.769   0.500
  692SOL     OW 2256   2.530   0.540   2.966
  692SOL    HW1 2257   2.524   0.443   2.942
  692SOL    HW2 2258   2.626   0.567   2.974
  693SOL     OW 2259   4.238   3.609   0.487
  693SOL    HW1 2260   4.228   3.517   0.449
  693SOL    HW2 2261   4.148   3.650   0.497
  694SOL     OW 2262   2.582   1.511   0.272
  694SOL    HW1 2263   2.523   1.505   0.352
  694SOL    HW2 2264   2.526   1.507   0.189
  695SOL     OW 2265   2.747   0.588   4.137
  695SOL    HW1 2266   2.791   0.520   4.077
  695SOL    HW2 2267   2.659   0.552   4.168
  696SOL     OW 2268   1.464   2.955   3.915
  696SOL    HW1 2269   1.412   2.869   3.915
  696SOL    HW2 2270   1.404   3.029   3.884
  697SOL     OW 2271   2.695   0.355   1.101
  697SOL    HW1 2272   2.689   0.453   1.081
  697SOL    HW2 2273   2.622   0.330   1.164
  698SOL     OW 2274   3.242   4.016   2.138
  698SOL    HW1 2275   3.283   3.925   2.129
  698SOL    HW2 2276   3.311   4.079   2.175
  699SOL     OW 2277   3.118   4.278   3.356
  699SOL    HW1 2278   3.111   4.350   3.425
  699SOL    HW2 2279   3.087   4.315   3.268
  700SOL     OW 2280   0.217   4.587   0.355
  700SOL    HW1 2281   0.268   4.599   0.270
  700SOL    HW2 2282   0.183   4.493   0.361
  701SOL     OW 2283   1.744   3.235   3.192
  701SOL    HW1 2284   1.784   3.144   3.184
  701SOL    HW2 2285   1.689   3.240   3.275
  702SOL     OW 2286   0.768   3.591   1.288
  702SOL    HW1 2287   0.686   3.555   1.334
  702SOL    HW2 2288   0.813   3.657   1.349
  703SOL     OW 2289   3.709   1.586   3.023
  703SOL    HW1 2290   3.725   1.488   3.036
  703SOL    HW2 2291   3.617   1.599   2.986
  704SOL     OW 2292   4.080   4.712   2.082
  704SOL    HW1 2293   4.115   4.806   2.080
  704SOL    HW2 2294   4.156   4.648   2.093
  705SOL     OW 2295   2.951   0.219   1.657
  705SOL    HW1 2296   2.923   0.309   1.623
  705SOL    HW2 2297   2.889   0.150   1.619
  706SOL     OW 2298   1.627   4.298   0.837
  706SOL    HW1 2299   1.706   4.310   0.898
  706SOL    HW2 2300   1.659   4.262   0.749
  707SOL     OW 2301   0.272   0.676   2.846
  707SOL    HW1 2302   0.181   0.682   2.804
  707SOL    HW2 2303   0.289   0.759   2.899
  708SOL     OW 2304   0.261   2.056   4.090
  708SOL    HW1 2305   0.262   2.023   4.184
  708SOL    HW2 2306   0.356   2.071   4.059
  709SOL     OW 2307   2.700   2.878   0.702
  709SOL    HW1 2308   2.670   2.970   0.677
  709SOL    HW2 2309   2.652   2.811   0.644
  710SOL     OW 2310   4.832   1.981   0.636
  710SOL    HW1 2311   4.744   2.030   0.632
  710SOL    HW2 2312   4.824   1.907   0.703
  711SOL     OW 2313   2.419   3.061   0.877
  711SOL    HW1 2314   2.344   3.011   0.833
  711SOL    HW2 2315   2.423   3.037   0.974
  712SOL     OW 2316   2.894   0.755   3.092
  712SOL    HW1 2317   2.949   0.721   3.169
  712SOL    HW2 2318   2.821   0.689   3.072
  713SOL     OW 2319   2.463   0.355   0.806
  713SOL    HW1 2320   2.377   0.401   0.785
  713SOL    HW2 2321   2.445   0.258   0.824
  714SOL     OW 2322   1.027   3.975   2.140
  714SOL    HW1 2323   1.103   3.986   2.075
  714SOL    HW2 2324   1.061   3.930   2.223
  715SOL     OW 2325   3.863   1.265   3.041
  715SOL    HW1 2326   3.764   1.270   3.029
  715SOL    HW2 2327   3.902   1.356   3.031
  716SOL     OW 2328   3.805   4.285   3.781
  716SOL    HW1 2329   3.732   4.353   3.782
  716SOL    HW2 2330   3.893   4.332   3.786
  717SOL     OW 2331   1.558   4.850   4.080
  717SOL    HW1 2332   1.460   4.833   4.080
  717SOL    HW2 2333   1.606   4.765   4.103
  718SOL     OW 2334   3.286   0.188   2.430
  718SOL    HW1 2335   3.313   0.256   2.362
  718SOL    HW2 2336   3.369   0.150   2.472
  719SOL     OW 2337   4.018   0.448   0.470
  719SOL    HW1 2338   3.929   0.441   0.516
  719SOL    HW2 2339   4.082   0.496   0.530
  720SOL     OW 2340   1.167   4.392   2.139
  720SOL    HW1 2341   1.204   4.312   2.187
  720SOL    HW2 2342   1.069   4.397   2.156
  721SOL     OW 2343   2.092   1.465   2.634
  721SOL    HW1 2344   2.190   1.444   2.635
  721SOL    HW2 2345   2.041   1.379   2.631
  722SOL     OW 2346   3.477   0.535   3.676
  722SOL    HW1 2347   3.430   0.485   3.748
  722SOL    HW2 2348   3.576   0.520   3.685
  723SOL     OW 2349   3.813   0.977   3.018
  723SOL    HW1 2350   3.745   1.049   3.018
  723SOL    HW2 2351   3.904   1.017   3.021
  724SOL     OW 2352   0.392   2.187   2.742
  724SOL    HW1 2353   0.436   2.275   2.761
  724SOL    HW2 2354   0.294   2.201   2.729
  725SOL     OW 2355   0.934   1.992   1.731
  725SOL    HW1 2356   1.010   2.054   1.749
  725SOL    HW2 2357   0.931   1.922   1.803
  726SOL     OW 2358   1.470   3.866   3.751
  726SOL    HW1 2359   1.458   3.770   3.728
  726SOL    HW2 2360   1.538   3.907   3.689
  727SOL     OW 2361   2.749   2.109   4.260
  727SOL    HW1 2362   2.655   2.077   4.273
  727SOL    HW2 2363   2.797   2.104   4.348
  728SOL     OW 2364   3.222   4.102   2.538
  728SOL    HW1 2365   3.297   4.168   2.550
  728SOL    HW2 2366   3.145   4.131   2.595
  729SOL     OW 2367   4.328   1.400   4.386
  729SOL    HW1 2368   4.254   1.332   4.387
  729SOL    HW2 2369   4.415   1.353   4.373
  730SOL     OW 2370   0.816   4.258   3.697
  730SOL    HW1 2371   0.893   4.264   3.759
  730SOL    HW2 2372   0.815   4.339   3.638
  731SOL     OW 2373   4.671   1.912   3.166
  731SOL    HW1 2374   4.727   1.982   3.210
  731SOL    HW2 2375   4.728   1.858   3.104
  732SOL     OW 2376   2.151   4.386   1.445
  732SOL    HW1 2377   2.127   4.344   1.532
  732SOL    HW2 2378   2.244   4.360   1.419
  733SOL     OW 2379   3.108   2.784   1.478
  733SOL    HW1 2380   3.078   2.696   1.440
  733SOL    HW2 2381   3.061   2.800   1.565
  734SOL     OW 2382   3.690   4.647   1.341
  734SOL    HW1 2383   3.748   4.709   1.394
  734SOL    HW2 2384   3.692   4.557   1.383
  735SOL     OW 2385   1.153   2.343   3.676
  735SOL    HW1 2386   1.240   2.299   3.653
  735SOL    HW2 2387   1.144   2.427   3.622
  736SOL     OW 2388   1.123   0.230   3.843
  736SOL    HW1 2389   1.070   0.151   3.812
  736SOL    HW2 2390   1.077   0.314   3.814
  737SOL     OW 2391   2.742   0.828   2.218
  737SOL    HW1 2392   2.684   0.748   2.202
  737SOL    HW2 2393   2.836   0.807   2.190
  738SOL     OW 2394   1.991   2.444   1.398
  738SOL    HW1 2395   2.046   2.527   1.409
  738SOL    HW2 2396   1.896   2.470   1.380
  739SOL     OW 2397   2.082   1.994   0.253
  739SOL    HW1 2398   2.171   2.036   0.236
  739SOL    HW2 2399   2.010   2.056   0.222
  740SOL     OW 2400   4.475   1.345   1.002
  740SOL    HW1 2401   4.395   1.345   1.061
  740SOL    HW2 2402   4.537   1.271   1.030
  741SOL     OW 2403   2.378   0.630   3.145
  741SOL    HW1 2404   2.384   0.678   3.057
  741SOL    HW2 2405   2.466   0.637   3.192
  742SOL     OW 2406   4.758   1.542   1.457
  742SOL    HW1 2407   4.765   1.479   1.379
  742SOL    HW2 2408   4.743   1.489   1.540
  743SOL     OW 2409   4.672   4.183   4.293
  743SOL    HW1 2410   4.761   4.211   4.327
  743SOL    HW2 2411   4.672   4.084   4.279
  744SOL     OW 2412   1.716   4.212   2.083
  744SOL    HW1 2413   1.724   4.120   2.122
  744SOL    HW2 2414   1.623   4.246   2.097
  745SOL     OW 2415   1.835   1.549   4.109
  745SOL    HW1 2416   1.770   1.625   4.109
  745SOL    HW2 2417   1.786   1.463   4.098
  746SOL     OW 2418   0.981   4.654   3.749
  746SOL    HW1 2419   1.073   4.692   3.752
  746SOL    HW2 2420   0.986   4.554   3.742
  747SOL     OW 2421   1.532   4.675   1.801
  747SOL    HW1 2422   1.632   4.684   1.804
  747SOL    HW2 2423   1.509   4.577   1.802
  748SOL     OW 2424   3.280   1.188   1.054
  748SOL    HW1 2425   3.248   1.280   1.033
  748SOL    HW2 2426   3.363   1.194   1.111
  749SOL     OW 2427   2.528   4.765   3.370
  749SOL    HW1 2428   2.500   4.738   3.462
  749SOL    HW2 2429   2.578   4.851   3.375
  750SOL     OW 2430   3.882   2.834   2.645
  750SOL    HW1 2431   3.980   2.852   2.656
  750SOL    HW2 2432   3.833   2.921   2.642
  751SOL     OW 2433   0.668   4.556   0.935
  751SOL    HW1 2434   0.693   4.610   1.016
  751SOL    HW2 2435   0.750   4.542   0.879
  752SOL     OW 2436   1.351   0.975   3.946
  752SOL    HW1 2437   1.359   0.878   3.968
  752SOL    HW2 2438   1.269   0.989   3.891
  753SOL     OW 2439   4.423   3.681   1.381
  753SOL    HW1 2440   4.481   3.601   1.394
  753SOL    HW2 2441   4.333   3.663   1.421
  754SOL     OW 2442   2.803   1.530   1.955
  754SOL    HW1 2443   2.786   1.593   1.879
  754SOL    HW2 2444   2.818   1.582   2.039
  755SOL     OW 2445   2.288   3.906   1.296
  755SOL    HW1 2446   2.315   4.002   1.305
  755SOL    HW2 2447   2.367   3.847   1.312
  756SOL     OW 2448   1.576   1.140   3.071
  756SOL    HW1 2449   1.631   1.209   3.024
  756SOL    HW2 2450   1.483   1.175   3.084
  757SOL     OW 2451   0.397   4.744   3.711
  757SOL    HW1 2452   0.414   4.662   3.655
  757SOL    HW2 2453   0.466   4.813   3.691
  758SOL     OW 2454   0.897   1.335   3.622
  758SOL    HW1 2455   0.885   1.237   3.634
  758SOL    HW2 2456   0.822   1.383   3.667
  759SOL     OW 2457   2.310   1.735   1.642
  759SOL    HW1 2458   2.319   1.754   1.544
  759SOL    HW2 2459   2.338   1.641   1.660
  760SOL     OW 2460   2.292   0.423   3.970
  760SOL    HW1 2461   2.357   0.468   3.909
  760SOL    HW2 2462   2.238   0.493   4.018
  761SOL     OW 2463   1.741   4.385   1.251
  761SOL    HW1 2464   1.779   4.476   1.265
  761SOL    HW2 2465   1.786   4.344   1.171
  762SOL     OW 2466   0.754   3.686   3.725
  762SOL    HW1 2467   0.678   3.751   3.728
  762SOL    HW2 2468   0.766   3.654   3.631
  763SOL     OW 2469   2.596   1.527   2.752
  763SOL    HW1 2470   2.615   1.613   2.705
  763SOL    HW2 2471   2.678   1.470   2.752
  764SOL     OW 2472   0.487   2.777   4.687
  764SOL    HW1 2473   0.528   2.711   4.624
  764SOL    HW2 2474   0.552   2.797   4.759
  765SOL     OW 2475   4.423   0.627   1.122
  765SOL    HW1 2476   4.506   0.591   1.079
  765SOL    HW2 2477   4.390   0.560   1.189
  766SOL     OW 2478   1.429   4.609   0.520
  766SOL    HW1 2479   1.330   4.620   0.511
  766SOL    HW2 2480   1.469   4.697   0.546
  767SOL     OW 2481   1.792   4.438   3.942
  767SOL    HW1 2482   1.805   4.534   3.968
  767SOL    HW2 2483   1.864   4.383   3.984
  768SOL     OW 2484   0.669   3.926   3.896
  768SOL    HW1 2485   0.613   3.988   3.842
  768SOL    HW2 2486   0.615   3.846   3.920
  769SOL     OW 2487   2.416   2.000   2.586
  769SOL    HW1 2488   2.362   1.920   2.614
  769SOL    HW2 2489   2.355   2.079   2.575
  770SOL     OW 2490   2.171   1.887   1.281
  770SOL    HW1 2491   2.195   1.894   1.185
  770SOL    HW2 2492   2.210   1.965   1.331
  771SOL     OW 2493   3.651   3.740   2.261
  771SOL    HW1 2494   3.614   3.827   2.293
  771SOL    HW2 2495   3.672   3.748   2.163
  772SOL     OW 2496   3.525   0.612   1.806
  772SOL    HW1 2497   3.485   0.701   1.785
  772SOL    HW2 2498   3.501   0.587   1.900
  773SOL     OW 2499   2.111   2.682   1.196
  773SOL    HW1 2500   2.012   2.686   1.213
  773SOL    HW2 2501   2.135   2.588   1.170
  774SOL     OW 2502   2.361   3.904   3.780
  774SOL    HW1 2503   2.449   3.870   3.747
  774SOL    HW2 2504   2.374   3.992   3.825
  775SOL     OW 2505   4.344   3.724   2.070
  775SOL    HW1 2506   4.320   3.810   2.024
  775SOL    HW2 2507   4.270   3.658   2.056
  776SOL     OW 2508   3.934   2.193   2.541
  776SOL    HW1 2509   3.892   2.219   2.628
  776SOL    HW2 2510   4.002   2.121   2.557
  777SOL     OW 2511   4.732   3.128   4.150
  777SOL    HW1 2512   4.663   3.090   4.212
  777SOL    HW2 2513   4.689   3.151   4.062
  778SOL     OW 2514   0.754   2.213   1.190
  778SOL    HW1 2515   0.719   2.141   1.130
  778SOL    HW2 2516   0.804   2.171   1.266
  779SOL     OW 2517   3.140   4.496   1.769
  779SOL    HW1 2518   3.141   4.420   1.704
  779SOL    HW2 2519   3.178   4.577   1.725
  780SOL     OW 2520   3.518   2.473   4.374
  780SOL    HW1 2521   3.494   2.570   4.380
  780SOL    HW2 2522   3.610   2.464   4.338
  781SOL     OW 2523   1.348   2.946   3.445
  781SOL    HW1 2524   1.346   2.861   3.498
  781SOL    HW2 2525   1.398   3.016   3.497
  782SOL     OW 2526   0.710   2.132   1.660
  782SOL    HW1 2527   0.631   2.081   1.694
  782SOL    HW2 2528   0.731   2.103   1.567
  783SOL     OW 2529   3.762   3.257   2.024
  783SOL    HW1 2530   3.860   3.237   2.028
  783SOL    HW2 2531   3.712   3.171   2.024
  784SOL     OW 2532   3.758   3.573   4.241
  784SOL    HW1 2533   3.835   3.512   4.225
  784SOL    HW2 2534   3.702   3.537   4.316
  785SOL     OW 2535   2.966   3.783   1.605
  785SOL    HW1 2536   3.055   3.738   1.605
  785SOL    HW2 2537   2.979   3.882   1.599
  786SOL     OW 2538   2.647   4.736   4.577
  786SOL    HW1 2539   2.596   4.653   4.598
  786SOL    HW2 2540   2.744   4.723   4.599
  787SOL     OW 2541   3.205   2.343   0.316
  787SOL    HW1 2542   3.282   2.407   0.326
  787SOL    HW2 2543   3.235   2.265   0.261
  788SOL     OW 2544   0.409   2.775   2.127
  788SOL    HW1 2545   0.375   2.686   2.158
  788SOL    HW2 2546   0.447   2.766   2.035
  789SOL     OW 2547   4.008   0.259   3.745
  789SOL    HW1 2548   3.923   0.227   3.787
  789SOL    HW2 2549   4.074   0.281   3.817
  790SOL     OW 2550   2.561   2.763   1.452
  790SOL    HW1 2551   2.656   2.768   1.482
  790SOL    HW2 2552   2.551   2.686   1.389
  791SOL     OW 2553   1.415   2.747   1.025
  791SOL    HW1 2554   1.443   2.722   1.117
  791SOL    HW2 2555   1.362   2.672   0.985
  792SOL     OW 2556   3.538   4.752   0.907
  792SOL    HW1 2557   3.560   4.812   0.831
  792SOL    HW2 2558   3.543   4.803   0.992
  793SOL     OW 2559   2.626   3.066   2.364
  793SOL    HW1 2560   2.631   3.145   2.425
  793SOL    HW2 2561   2.707   3.066   2.304
  794SOL     OW 2562   1.408   4.564   2.839
  794SOL    HW1 2563   1.420   4.473   2.801
  794SOL    HW2 2564   1.424   4.561   2.938
  795SOL     OW 2565   1.744   1.142   4.358
  795SOL    HW1 2566   1.705   1.049   4.362
  795SOL    HW2 2567   1.842   1.135   4.342
  796SOL     OW 2568   1.318   3.388   2.237
  796SOL    HW1 2569   1.373   3.305   2.243
  796SOL    HW2 2570   1.252   3.379   2.162
  797SOL     OW 2571   2.762   0.353   1.890
  797SOL    HW1 2572   2.687   0.291   1.868
  797SOL    HW2 2573   2.726   0.445   1.904
  798SOL     OW 2574   1.049   0.739   0.212
  798SOL    HW1 2575   0.966   0.766   0.162
  798SOL    HW2 2576   1.025   0.669   0.279
  799SOL     OW 2577   1.170   0.347   2.690
  799SOL    HW1 2578   1.248   0.348   2.752
  799SOL    HW2 2579   1.169   0.432   2.637
  800SOL     OW 2580   2.641   0.323   4.652
  800SOL    HW1 2581   2.625   0.416   4.685
  800SOL    HW2 2582   2.739   0.304   4.655
  801SOL     OW 2583   0.264   0.826   3.377
  801SOL    HW1 2584   0.321   0.908   3.381
  801SOL    HW2 2585   0.322   0.746   3.359
  802SOL     OW 2586   4.074   0.799   3.934
  802SOL    HW1 2587   4.021   0.875   3.898
  802SOL    HW2 2588   4.117   0.826   4.021
  803SOL     OW 2589   4.488   1.825   0.184
  803SOL    HW1 2590   4.457   1.751   0.245
  803SOL    HW2 2591   4.579   1.802   0.150
  804SOL     OW 2592   4.041   4.773   4.178
  804SOL    HW1 2593   4.024   4.844   4.246
  804SOL    HW2 2594   3.954   4.746   4.136
  805SOL     OW 2595   1.103   1.848   4.020
  805SOL    HW1 2596   1.113   1.750   4.004
  805SOL    HW2 2597   1.191   1.894   4.004
  806SOL     OW 2598   1.068   1.524   2.499
  806SOL    HW1 2599   1.072   1.528   2.599
  806SOL    HW2 2600   0.987   1.573   2.467
  807SOL     OW 2601   0.815   4.117   2.237
  807SOL    HW1 2602   0.802   4.098   2.139
  807SOL    HW2 2603   0.913   4.127   2.255
  808SOL     OW 2604   1.914   0.766   0.261
  808SOL    HW1 2605   1.822   0.807   0.255
  808SOL    HW2 2606   1.948   0.748   0.169
  809SOL     OW 2607   4.091   4.522   0.507
  809SOL    HW1 2608   4.145   4.606   0.511
  809SOL    HW2 2609   3.994   4.545   0.510
  810SOL     OW 2610   1.124   3.077   4.060
  810SOL    HW1 2611   1.116   3.099   4.157
  810SOL    HW2 2612   1.151   3.159   4.010
  811SOL     OW 2613   0.339   1.080   2.114
  811SOL    HW1 2614   0.265   1.077   2.181
  811SOL    HW2 2615   0.427   1.088   2.161
  812SOL     OW 2616   0.844   0.980   0.564
  812SOL    HW1 2617   0.771   1.040   0.596
  812SOL    HW2 2618   0.814   0.885   0.571
  813SOL     OW 2619   4.700   4.706   3.074
  813SOL    HW1 2620   4.619   4.726   3.019
  813SOL    HW2 2621   4.696   4.610   3.103
  814SOL     OW 2622   2.541   4.681   0.656
  814SOL    HW1 2623   2.591   4.763   0.627
  814SOL    HW2 2624   2.449   4.708   0.685
  815SOL     OW 2625   4.525   0.554   2.699
  815SOL    HW1 2626   4.437   0.585   2.734
  815SOL    HW2 2627   4.537   0.458   2.723
  816SOL     OW 2628   2.761   1.672   0.150
  816SOL    HW1 2629   2.785   1.586   0.195
  816SOL    HW2 2630   2.667   1.696   0.174
  817SOL     OW 2631   1.707   3.147   2.190
  817SOL    HW1 2632   1.678   3.236   2.155
  817SOL    HW2 2633   1.694   3.078   2.119
  818SOL     OW 2634   2.984   4.175   1.624
  818SOL    HW1 2635   2.903   4.122   1.597
  818SOL    HW2 2636   3.041   4.118   1.683
  819SOL     OW 2637   0.711   3.365   3.060
  819SOL    HW1 2638   0.763   3.392   2.979
  819SOL    HW2 2639   0.638   3.431   3.075
  820SOL     OW 2640   1.575   4.043   3.454
  820SOL    HW1 2641   1.482   4.010   3.465
  820SOL    HW2 2642   1.573   4.134   3.413
  821SOL     OW 2643   4.623   1.685   1.615
  821SOL    HW1 2644   4.711   1.728   1.595
  821SOL    HW2 2645   4.556   1.756   1.637
  822SOL     OW 2646   2.581   4.221   0.163
  822SOL    HW1 2647   2.658   4.162   0.190
  822SOL    HW2 2648   2.615   4.314   0.149
  823SOL     OW 2649   0.389   1.916   2.500
  823SOL    HW1 2650   0.385   2.001   2.552
  823SOL    HW2 2651   0.478   1.909   2.454
  824SOL     OW 2652   1.864   1.080   1.318
  824SOL    HW1 2653   1.776   1.034   1.326
  824SOL    HW2 2654   1.849   1.179   1.311
  825SOL     OW 2655   4.559   2.097   2.666
  825SOL    HW1 2656   4.465   2.115   2.635
  825SOL    HW2 2657   4.617   2.174   2.640
  826SOL     OW 2658   1.268   3.446   0.612
  826SOL    HW1 2659   1.323   3.527   0.632
  826SOL    HW2 2660   1.171   3.470   0.619
  827SOL     OW 2661   3.733   4.775   4.079
  827SOL    HW1 2662   3.778   4.850   4.031
  827SOL    HW2 2663   3.667   4.732   4.019
  828SOL     OW 2664   4.181   1.076   3.090
  828SOL    HW1 2665   4.113   1.149   3.085
  828SOL    HW2 2666   4.269   1.114   3.116
  829SOL     OW 2667   1.387   1.299   4.787
  829SOL    HW1 2668   1.483   1.303   4.759
  829SOL    HW2 2669   1.356   1.392   4.809
  830SOL     OW 2670   3.983   0.953   1.457
  830SOL    HW1 2671   3.904   0.994   1.502
  830SOL    HW2 2672   3.958   0.863   1.422
  831SOL     OW 2673   1.728   4.802   0.267
  831SOL    HW1 2674   1.812   4.838   0.307
  831SOL    HW2 2675   1.748   4.766   0.175
  832SOL     OW 2676   1.047   1.914   3.221
  832SOL    HW1 2677   1.035   1.941   3.316
  832SOL    HW2 2678   1.076   1.818   3.216
  833SOL     OW 2679   1.272   0.468   1.738
  833SOL    HW1 2680   1.267   0.564   1.769
  833SOL    HW2 2681   1.355   0.426   1.774
  834SOL     OW 2682   0.745   1.097   1.861
  834SOL    HW1 2683   0.819   1.138   1.914
  834SOL    HW2 2684   0.779   1.070   1.771
  835SOL     OW 2685   2.358   4.370   4.534
  835SOL    HW1 2686   2.317   4.456   4.565
  835SOL    HW2 2687   2.437   4.390   4.476
  836SOL     OW 2688   0.340   1.433   3.103
  836SOL    HW1 2689   0.241   1.437   3.119
  836SOL    HW2 2690   0.388   1.443   3.189
  837SOL     OW 2691   0.895   0.885   4.386
  837SOL    HW1 2692   0.945   0.934   4.457
  837SOL    HW2 2693   0.952   0.879   4.304
  838SOL     OW 2694   2.209   3.012   2.122
  838SOL    HW1 2695   2.183   3.058   2.038
  838SOL    HW2 2696   2.278   3.067   2.170
  839SOL     OW 2697   0.403   0.996   4.751
  839SOL    HW1 2698   0.424   1.093   4.734
  839SOL    HW2 2699   0.435   0.942   4.673
  840SOL     OW 2700   3.655   2.298   1.896
  840SOL    HW1 2701   3.724   2.231   1.872
  840SOL    HW2 2702   3.612   2.332   1.812
  841SOL     OW 2703   0.821   2.671   4.850
  841SOL    HW1 2704   0.753   2.600   4.832
  841SOL    HW2 2705   0.777   2.760   4.842
  842SOL     OW 2706   2.931   2.364   3.215
  842SOL    HW1 2707   2.989   2.349   3.295
  842SOL    HW2 2708   2.986   2.406   3.142
  843SOL     OW 2709   2.914   1.006   1.931
  843SOL    HW1 2710   2.886   0.912   1.953
  843SOL    HW2 2711   2.953   1.049   2.012
  844SOL     OW 2712   3.311   0.474   2.871
  844SOL    HW1 2713   3.295   0.375   2.873
  844SOL    HW2 2714   3.409   0.490   2.856
  845SOL     OW 2715   3.488   1.524   3.357
  845SOL    HW1 2716   3.409   1.512   3.417
  845SOL    HW2 2717   3.464   1.495   3.264
  846SOL     OW 2718   3.120   0.490   4.581
  846SOL    HW1 2719   3.067   0.573   4.559
  846SOL    HW2 2720   3.204   0.516   4.629
  847SOL     OW 2721   2.435   2.558   3.386
  847SOL    HW1 2722   2.337   2.576   3.391
  847SOL    HW2 2723   2.465   2.562   3.290
  848SOL     OW 2724   3.914   4.133   0.624
  848SOL    HW1 2725   3.944   4.049   0.579
  848SOL    HW2 2726   3.878   4.196   0.555
  849SOL     OW 2727   3.649   2.654   2.061
  849SOL    HW1 2728   3.688   2.588   1.997
  849SOL    HW2 2729   3.677   2.630   2.154
  850SOL     OW 2730   0.799   2.441   1.001
  850SOL    HW1 2731   0.745   2.512   1.045
  850SOL    HW2 2732   0.754   2.353   1.013
  851SOL     OW 2733   3.086   2.279   2.581
  851SOL    HW1 2734   3.005   2.273   2.523
  851SOL    HW2 2735   3.078   2.211   2.655
  852SOL     OW 2736   3.207   3.373   4.139
  852SOL    HW1 2737   3.276   3.301   4.150
  852SOL    HW2 2738   3.117   3.330   4.131
  853SOL     OW 2739   2.179   2.952   1.165
  853SOL    HW1 2740   2.143   3.042   1.189
  853SOL    HW2 2741   2.223   2.958   1.075
  854SOL     OW 2742   3.071   0.390   2.168
  854SOL    HW1 2743   3.049   0.320   2.236
  854SOL    HW2 2744   3.095   0.475   2.214
  855SOL     OW 2745   2.816   2.518   4.321
  855SOL    HW1 2746   2.800   2.424   4.348
  855SOL    HW2 2747   2.890   2.557   4.376
  856SOL     OW 2748   0.551   1.722   3.230
  856SOL    HW1 2749   0.648   1.714   3.252
  856SOL    HW2 2750   0.514   1.631   3.210
  857SOL     OW 2751   1.382   2.630   0.533
  857SOL    HW1 2752   1.469   2.657   0.574
  857SOL    HW2 2753   1.329   2.712   0.513
  858SOL     OW 2754   0.962   2.752   0.642
  858SOL    HW1 2755   0.896   2.687   0.604
  858SOL    HW2 2756   0.912   2.825   0.690
  859SOL     OW 2757   3.209   3.598   2.590
  859SOL    HW1 2758   3.196   3.506   2.630
  859SOL    HW2 2759   3.147   3.662   2.635
  860SOL     OW 2760   1.661   4.170   4.058
  860SOL    HW1 2761   1.662   4.250   3.999
  860SOL    HW2 2762   1.618   4.094   4.010
  861SOL     OW 2763   1.384   1.645   0.240
  861SOL    HW1 2764   1.428   1.557   0.260
  861SOL    HW2 2765   1.451   1.718   0.249
  862SOL     OW 2766   3.429   2.278   1.541
  862SOL    HW1 2767   3.449   2.330   1.624
  862SOL    HW2 2768   3.512   2.231   1.511
  863SOL     OW 2769   4.669   2.425   4.395
  863SOL    HW1 2770   4.749   2.376   4.431
  863SOL    HW2 2771   4.620   2.366   4.331
  864SOL     OW 2772   2.571   0.857   1.348
  864SOL    HW1 2773   2.655   0.898   1.382
  864SOL    HW2 2774   2.592   0.797   1.271
  865SOL     OW 2775   4.744   1.730   2.919
  865SOL    HW1 2776   4.833   1.773   2.912
  865SOL    HW2 2777   4.752   1.633   2.894
  866SOL     OW 2778   2.279   1.033   4.043
  866SOL    HW1 2779   2.208   1.090   4.086
  866SOL    HW2 2780   2.366   1.082   4.045
  867SOL     OW 2781   0.470   4.258   0.186
  867SOL    HW1 2782   0.567   4.267   0.165
  867SOL    HW2 2783   0.458   4.270   0.285
  868SOL     OW 2784   3.601   4.324   2.766
  868SOL    HW1 2785   3.561   4.234   2.782
  868SOL    HW2 2786   3.678   4.315   2.703
  869SOL     OW 2787   1.228   3.911   3.365
  869SOL    HW1 2788   1.136   3.884   3.394
  869SOL    HW2 2789   1.290   3.833   3.375
  870SOL     OW 2790   4.812   2.873   3.771
  870SOL    HW1 2791   4.751   2.952   3.763
  870SOL    HW2 2792   4.758   2.789   3.769
  871SOL     OW 2793   1.523   4.663   2.284
  871SOL    HW1 2794   1.520   4.563   2.283
  871SOL    HW2 2795   1.618   4.692   2.296
  872SOL     OW 2796   4.681   2.528   1.783
  872SOL    HW1 2797   4.684   2.560   1.878
  872SOL    HW2 2798   4.643   2.600   1.725
  873SOL     OW 2799   1.735   3.928   4.198
  873SOL    HW1 2800   1.678   3.897   4.122
  873SOL    HW2 2801   1.718   4.025   4.214
  874SOL     OW 2802   1.802   2.440   1.174
  874SOL    HW1 2803   1.854   2.504   1.117
  874SOL    HW2 2804   1.721   2.486   1.209
  875SOL     OW 2805   2.706   0.263   3.380
  875SOL    HW1 2806   2.648   0.182   3.370
  875SOL    HW2 2807   2.649   0.343   3.394
  876SOL     OW 2808   0.277   1.497   0.715
  876SOL    HW1 2809   0.251   1.593   0.708
  876SOL    HW2 2810   0.372   1.487   0.686
  877SOL     OW 2811   4.515   1.921   2.955
  877SOL    HW1 2812   4.441   1.859   2.982
  877SOL    HW2 2813   4.476   2.010   2.929
  878SOL     OW 2814   4.538   0.725   3.582
  878SOL    HW1 2815   4.563   0.629   3.590
  878SOL    HW2 2816   4.438   0.733   3.580
  879SOL     OW 2817   2.358   1.080   1.356
  879SOL    HW1 2818   2.344   1.122   1.267
  879SOL    HW2 2819   2.364   0.980   1.345
  880SOL     OW 2820   1.545   3.452   0.746
  880SOL    HW1 2821   1.488   3.404   0.813
  880SOL    HW2 2822   1.533   3.551   0.757
  881SOL     OW 2823   3.094   0.235   0.860
  881SOL    HW1 2824   3.137   0.150   0.829
  881SOL    HW2 2825   3.164   0.297   0.894
  882SOL     OW 2826   4.138   2.816   2.220
  882SOL    HW1 2827   4.180   2.905   2.199
  882SOL    HW2 2828   4.039   2.824   2.213
  883SOL     OW 2829   2.034   0.911   3.151
  883SOL    HW1 2830   2.035   0.818   3.187
  883SOL    HW2 2831   2.098   0.968   3.202
  884SOL     OW 2832   3.665   3.017   0.421
  884SOL    HW1 2833   3.582   3.017   0.477
  884SOL    HW2 2834   3.730   3.084   0.459
  885SOL     OW 2835   4.748   4.586   3.510
  885SOL    HW1 2836   4.819   4.654   3.492
  885SOL    HW2 2837   4.665   4.633   3.541
  886SOL     OW 2838   2.420   2.947   4.159
  886SOL    HW1 2839   2.512   2.965   4.126
  886SOL    HW2 2840   2.389   3.024   4.215
  887SOL     OW 2841   2.120   4.018   0.924
  887SOL    HW1 2842   2.094   3.926   0.892
  887SOL    HW2 2843   2.098   4.084   0.852
  888SOL     OW 2844   1.758   1.565   2.337
  888SOL    HW1 2845   1.711   1.486   2.299
  888SOL    HW2 2846   1.754   1.562   2.437
  889SOL     OW 2847   1.866   3.113   2.679
  889SOL    HW1 2848   1.958   3.153   2.679
  889SOL    HW2 2849   1.873   3.013   2.679
  890SOL     OW 2850   0.876   1.970   0.876
  890SOL    HW1 2851   0.820   2.004   0.951
  890SOL    HW2 2852   0.881   1.870   0.881
  891SOL     OW 2853   3.019   4.724   4.668
  891SOL    HW1 2854   2.991   4.815   4.700
  891SOL    HW2 2855   3.078   4.735   4.588
  892SOL     OW 2856   2.618   4.103   1.816
  892SOL    HW1 2857   2.716   4.091   1.832
  892SOL    HW2 2858   2.604   4.158   1.734
  893SOL     OW 2859   0.647   0.986   3.553
  893SOL    HW1 2860   0.605   0.895   3.550
  893SOL    HW2 2861   0.741   0.977   3.586
  894SOL     OW 2862   1.375   2.989   1.299
  894SOL    HW1 2863   1.397   3.072   1.350
  894SOL    HW2 2864   1.451   2.925   1.306
  895SOL     OW 2865   2.260   1.186   0.724
  895SOL    HW1 2866   2.232   1.282   0.724
  895SOL    HW2 2867   2.348   1.177   0.770
  896SOL     OW 2868   0.961   0.341   2.857
  896SOL    HW1 2869   0.908   0.407   2.805
  896SOL    HW2 2870   0.925   0.249   2.841
  897SOL     OW 2871   2.016   2.377   0.862
  897SOL    HW1 2872   2.097   2.327   0.891
  897SOL    HW2 2873   1.937   2.316   0.860
  898SOL     OW 2874   0.577   2.439   4.656
  898SOL    HW1 2875   0.487   2.483   4.656
  898SOL    HW2 2876   0.565   2.340   4.656
  899SOL     OW 2877   1.592   0.500   4.334
  899SOL    HW1 2878   1.495   0.517   4.349
  899SOL    HW2 2879   1.616   0.411   4.373
  900SOL     OW 2880   4.023   0.692   4.365
  900SOL    HW1 2881   4.089   0.618   4.350
  900SOL    HW2 2882   3.931   0.658   4.345
  901SOL     OW 2883   3.679   2.145   3.277
  901SOL    HW1 2884   3.700   2.154   3.179
  901SOL    HW2 2885   3.595   2.196   3.297
  902SOL     OW 2886   2.822   1.216   4.584
  902SOL    HW1 2887   2.902   1.167   4.549
  902SOL    HW2 2888   2.741   1.157   4.574
  903SOL     OW 2889   4.850   3.379   3.860
  903SOL    HW1 2890   4.830   3.473   3.831
  903SOL    HW2 2891   4.840   3.373   3.960
  904SOL     OW 2892   4.373   1.065   1.670
  904SOL    HW1 2893   4.340   1.139   1.730
  904SOL    HW2 2894   4.314   0.986   1.680
  905SOL     OW 2895   1.696   2.375   4.284
  905SOL    HW1 2896   1.701   2.314   4.204
  905SOL    HW2 2897   1.739   2.330   4.362
  906SOL     OW 2898   3.030   2.011   1.957
  906SOL    HW1 2899   3.111   1.954   1.939
  906SOL    HW2 2900   2.974   2.016   1.874
  907SOL     OW 2901   4.547   2.009   1.587
  907SOL    HW1 2902   4.645   2.019   1.575
  907SOL    HW2 2903   4.528   1.986   1.682
  908SOL     OW 2904   2.236   1.407   4.675
  908SOL    HW1 2905   2.146   1.364   4.672
  908SOL    HW2 2906   2.307   1.336   4.670
  909SOL     OW 2907   1.076   3.106   4.532
  909SOL    HW1 2908   1.019   3.078   4.455
  909SOL    HW2 2909   1.103   3.025   4.585
  910SOL     OW 2910   3.001   0.313   2.829
  910SOL    HW1 2911   2.926   0.288   2.769
  910SOL    HW2 2912   3.010   0.413   2.830
  911SOL     OW 2913   4.451   4.218   1.360
  911SOL    HW1 2914   4.539   4.203   1.315
  911SOL    HW2 2915   4.397   4.134   1.356
  912SOL     OW 2916   0.809   4.104   0.479
  912SOL    HW1 2917   0.901   4.075   0.453
  912SOL    HW2 2918   0.743   4.035   0.450
  913SOL     OW 2919   2.975   2.048   0.751
  913SOL    HW1 2920   3.073   2.062   0.760
  913SOL    HW2 2921   2.947   2.069   0.657
  914SOL     OW 2922   4.657   4.398   1.101
  914SOL    HW1 2923   4.726   4.469   1.111
  914SOL    HW2 2924   4.570   4.432   1.137
  915SOL     OW 2925   2.713   4.484   2.087
  915SOL    HW1 2926   2.699   4.390   2.120
  915SOL    HW2 2927   2.624   4.523   2.062
  916SOL     OW 2928   3.553   3.350   2.326
  916SOL    HW1 2929   3.473   3.290   2.321
  916SOL    HW2 2930   3.636   3.296   2.315
  917SOL     OW 2931   2.760   3.249   1.501
  917SOL    HW1 2932   2.811   3.335   1.499
  917SOL    HW2 2933   2.810   3.183   1.558
  918SOL     OW 2934   3.235   2.963   2.114
  918SOL    HW1 2935   3.334   2.953   2.111
  918SOL    HW2 2936   3.193   2.875   2.133
  919SOL     OW 2937   3.601   1.843   4.312
  919SOL    HW1 2938   3.569   1.937   4.297
  919SOL    HW2 2939   3.622   1.832   4.409
  920SOL     OW 2940   1.179   3.402   4.196
  920SOL    HW1 2941   1.157   3.307   4.217
  920SOL    HW2 2942   1.094   3.455   4.190
  921SOL     OW 2943   2.674   2.569   1.122
  921SOL    HW1 2944   2.597   2.632   1.120
  921SOL    HW2 2945   2.655   2.497   1.189
  922SOL     OW 2946   0.513   3.316   2.478
  922SOL    HW1 2947   0.592   3.262   2.450
  922SOL    HW2 2948   0.540   3.377   2.553
  923SOL     OW 2949   2.543   4.453   4.827
  923SOL    HW1 2950   2.555   4.453   4.727
  923SOL    HW2 2951   2.460   4.403   4.850
  924SOL     OW 2952   4.094   2.636   3.236
  924SOL    HW1 2953   4.071   2.727   3.202
  924SOL    HW2 2954   4.038   2.568   3.190
  925SOL     OW 2955   2.796   2.310   0.387
  925SOL    HW1 2956   2.799   2.378   0.460
  925SOL    HW2 2957   2.872   2.327   0.323
  926SOL     OW 2958   3.365   1.725   1.734
  926SOL    HW1 2959   3.321   1.664   1.668
  926SOL    HW2 2960   3.373   1.678   1.822
  927SOL     OW 2961   2.379   0.235   3.256
  927SOL    HW1 2962   2.451   0.285   3.304
  927SOL    HW2 2963   2.411   0.212   3.165
  928SOL     OW 2964   0.250   3.133   0.621
  928SOL    HW1 2965   0.151   3.119   0.632
  928SOL    HW2 2966   0.298   3.055   0.661
  929SOL     OW 2967   3.080   3.835   3.913
  929SOL    HW1 2968   3.160   3.779   3.890
  929SOL    HW2 2969   3.013   3.778   3.962
  930SOL     OW 2970   2.661   1.120   3.664
  930SOL    HW1 2971   2.668   1.107   3.565
  930SOL    HW2 2972   2.730   1.063   3.709
  931SOL     OW 2973   4.670   3.711   2.283
  931SOL    HW1 2974   4.736   3.755   2.222
  931SOL    HW2 2975   4.705   3.623   2.313
  932SOL     OW 2976   3.638   3.705   3.134
  932SOL    HW1 2977   3.715   3.687   3.195
  932SOL    HW2 2978   3.651   3.794   3.090
  933SOL     OW 2979   3.766   1.679   0.225
  933SOL    HW1 2980   3.834   1.630   0.171
  933SOL    HW2 2981   3.676   1.640   0.207
  934SOL     OW 2982   2.298   3.265   0.699
  934SOL    HW1 2983   2.387   3.309   0.685
  934SOL    HW2 2984   2.227   3.320   0.654
  935SOL     OW 2985   2.737   4.144   3.897
  935SOL    HW1 2986   2.791   4.198   3.832
  935SOL    HW2 2987   2.723   4.052   3.859
  936SOL     OW 2988   3.410   1.686   1.124
  936SOL    HW1 2989   3.494   1.741   1.126
  936SOL    HW2 2990   3.335   1.741   1.160
  937SOL     OW 2991   0.649   3.581   1.960
  937SOL    HW1 2992   0.611   3.493   1.986
  937SOL    HW2 2993   0.744   3.586   1.991
  938SOL     OW 2994   1.244   1.693   1.222
  938SOL    HW1 2995   1.338   1.707   1.256
  938SOL    HW2 2996   1.216   1.600   1.244
  939SOL     OW 2997   1.842   0.859   3.629
  939SOL    HW1 2998   1.929   0.902   3.604
  939SOL    HW2 2999   1.861   0.768   3.667
  940SOL     OW 3000   0.601   3.239   1.574
  940SOL    HW1 3001   0.695   3.256   1.544
  940SOL    HW2 3002   0.539   3.299   1.523
  941SOL     OW 3003   0.301   2.905   4.282
  941SOL    HW1 3004   0.220   2.942   4.328
  941SOL    HW2 3005   0.273   2.854   4.201
  942SOL     OW 3006   3.834   3.548   4.539
  942SOL    HW1 3007   3.776   3.530   4.619
  942SOL    HW2 3008   3.848   3.463   4.489
  943SOL     OW 3009   2.711   4.430   2.563
  943SOL    HW1 3010   2.713   4.516   2.511
  943SOL    HW2 3011   2.707   4.353   2.499
  944SOL     OW 3012   4.688   2.061   1.194
  944SOL    HW1 3013   4.662   1.965   1.199
  944SOL    HW2 3014   4.606   2.118   1.192
  945SOL     OW 3015   0.959   2.059   4.068
  945SOL    HW1 3016   1.052   2.092   4.085
  945SOL    HW2 3017   0.904   2.071   4.151
  946SOL     OW 3018   0.226   0.600   3.835
  946SOL    HW1 3019   0.271   0.511   3.842
  946SOL    HW2 3020   0.268   0.663   3.901
  947SOL     OW 3021   1.846   1.591   0.969
  947SOL    HW1 3022   1.903   1.672   0.976
  947SOL    HW2 3023   1.756   1.611   1.009
  948SOL     OW 3024   3.182   2.612   2.117
  948SOL    HW1 3025   3.231   2.653   2.041
  948SOL    HW2 3026   3.095   2.660   2.130
  949SOL     OW 3027   4.400   2.499   3.898
  949SOL    HW1 3028   4.496   2.497   3.870
  949SOL    HW2 3029   4.370   2.406   3.919
  950SOL     OW 3030   3.401   4.415   3.605
  950SOL    HW1 3031   3.481   4.469   3.631
  950SOL    HW2 3032   3.401   4.330   3.658
  951SOL     OW 3033   4.502   2.608   4.661
  951SOL    HW1 3034   4.485   2.647   4.570
  951SOL    HW2 3035   4.516   2.682   4.727
  952SOL     OW 3036   1.686   4.463   0.663
  952SOL    HW1 3037   1.619   4.537   0.665
  952SOL    HW2 3038   1.778   4.502   0.664
  953SOL     OW 3039   0.995   3.462   2.569
  953SOL    HW1 3040   0.936   3.424   2.640
  953SOL    HW2 3041   0.959   3.436   2.479
  954SOL     OW 3042   1.105   3.676   3.458
  954SOL    HW1 3043   1.009   3.685   3.430
  954SOL    HW2 3044   1.117   3.587   3.504
  955SOL     OW 3045   1.937   2.667   1.858
  955SOL    HW1 3046   1.837   2.672   1.861
  955SOL    HW2 3047   1.965   2.571   1.857
  956SOL     OW 3048   1.343   1.818   3.393
  956SOL    HW1 3049   1.294   1.853   3.473
  956SOL    HW2 3050   1.343   1.718   3.396
  957SOL     OW 3051   4.791   2.499   3.190
  957SOL    HW1 3052   4.732   2.424   3.220
  957SOL    HW2 3053   4.850   2.527   3.265
  958SOL     OW 3054   2.383   2.537   1.269
  958SOL    HW1 3055   2.438   2.480   1.208
  958SOL    HW2 3056   2.369   2.626   1.226
  959SOL     OW 3057   2.511   1.539   4.361
  959SOL    HW1 3058   2.597   1.574   4.398
  959SOL    HW2 3059   2.528   1.453   4.314
  960SOL     OW 3060   1.411   3.259   3.372
  960SOL    HW1 3061   1.458   3.339   3.334
  960SOL    HW2 3062   1.346   3.224   3.305
  961SOL     OW 3063   2.358   3.093   0.566
  961SOL    HW1 3064   2.400   3.012   0.606
  961SOL    HW2 3065   2.411   3.122   0.486
  962SOL     OW 3066   3.275   0.661   4.333
  962SOL    HW1 3067   3.216   0.651   4.413
  962SOL    HW2 3068   3.324   0.576   4.318
  963SOL     OW 3069   1.376   1.113   3.709
  963SOL    HW1 3070   1.337   1.032   3.664
  963SOL    HW2 3071   1.311   1.189   3.700
  964SOL     OW 3072   1.436   0.826   4.821
  964SOL    HW1 3073   1.392   0.846   4.733
  964SOL    HW2 3074   1.522   0.877   4.826
  965SOL     OW 3075   0.459   1.079   0.683
  965SOL    HW1 3076   0.539   1.020   0.683
  965SOL    HW2 3077   0.488   1.174   0.676
  966SOL     OW 3078   4.684   1.405   4.793
  966SOL    HW1 3079   4.621   1.440   4.723
  966SOL    HW2 3080   4.650   1.318   4.827
  967SOL     OW 3081   0.569   1.789   0.768
  967SOL    HW1 3082   0.498   1.859   0.766
  967SOL    HW2 3083   0.656   1.831   0.795
  968SOL     OW 3084   0.481   4.674   1.407
  968SOL    HW1 3085   0.513   4.600   1.348
  968SOL    HW2 3086   0.388   4.652   1.439
  969SOL     OW 3087   2.288   0.676   4.335
  969SOL    HW1 3088   2.201   0.637   4.304
  969SOL    HW2 3089   2.273   0.770   4.365
  970SOL     OW 3090   4.484   2.009   4.192
  970SOL    HW1 3091   4.449   2.056   4.111
  970SOL    HW2 3092   4.535   1.928   4.164
  971SOL     OW 3093   3.396   3.854   2.472
  971SOL    HW1 3094   3.387   3.911   2.390
  971SOL    HW2 3095   3.304   3.833   2.507
  972SOL     OW 3096   4.657   1.970   0.278
  972SOL    HW1 3097   4.582   1.991   0.341
  972SOL    HW2 3098   4.744   1.984   0.325
  973SOL     OW 3099   1.344   2.068   4.480
  973SOL    HW1 3100   1.401   1.991   4.509
  973SOL    HW2 3101   1.401   2.150   4.472
  974SOL     OW 3102   1.871   4.521   3.367
  974SOL    HW1 3103   1.945   4.585   3.349
  974SOL    HW2 3104   1.784   4.567   3.357
  975SOL     OW 3105   0.710   3.986   3.476
  975SOL    HW1 3106   0.724   4.073   3.428
  975SOL    HW2 3107   0.765   3.986   3.560
  976SOL     OW 3108   3.844   3.728   2.377
  976SOL    HW1 3109   3.941   3.748   2.396
  976SOL    HW2 3110   3.831   3.629   2.371
  977SOL     OW 3111   4.464   1.235   2.978
  977SOL    HW1 3112   4.394   1.302   3.004
  977SOL    HW2 3113   4.473   1.167   3.050
  978SOL     OW 3114   1.846   0.592   0.922
  978SOL    HW1 3115   1.939   0.603   0.958
  978SOL    HW2 3116   1.791   0.672   0.946
  979SOL     OW 3117   3.992   3.520   2.119
  979SOL    HW1 3118   3.900   3.547   2.089
  979SOL    HW2 3119   4.038   3.473   2.043
  980SOL     OW 3120   3.377   0.172   1.944
  980SOL    HW1 3121   3.413   0.254   1.899
  980SOL    HW2 3122   3.382   0.185   2.043
  981SOL     OW 3123   3.008   3.052   1.717
  981SOL    HW1 3124   3.007   3.100   1.630
  981SOL    HW2 3125   2.928   2.993   1.724
  982SOL     OW 3126   2.899   4.281   2.731
  982SOL    HW1 3127   2.899   4.381   2.728
  982SOL    HW2 3128   2.994   4.248   2.734
  983SOL     OW 3129   3.344   0.174   3.082
  983SOL    HW1 3130   3.354   0.161   3.180
  983SOL    HW2 3131   3.248   0.193   3.062
  984SOL     OW 3132   3.713   3.404   3.346
  984SOL    HW1 3133   3.708   3.504   3.351
  984SOL    HW2 3134   3.641   3.370   3.286
  985SOL     OW 3135   4.273   3.248   2.907
  985SOL    HW1 3136   4.324   3.324   2.947
  985SOL    HW2 3137   4.175   3.262   2.923
  986SOL     OW 3138   1.907   4.679   3.629
  986SOL    HW1 3139   1.827   4.630   3.665
  986SOL    HW2 3140   1.887   4.777   3.627
  987SOL     OW 3141   3.220   4.220   1.781
  987SOL    HW1 3142   3.255   4.154   1.847
  987SOL    HW2 3143   3.273   4.213   1.696
  988SOL     OW 3144   2.934   1.887   1.063
  988SOL    HW1 3145   2.848   1.838   1.073
  988SOL    HW2 3146   2.928   1.975   1.111
  989SOL     OW 3147   0.962   3.566   2.974
  989SOL    HW1 3148   0.995   3.484   2.929
  989SOL    HW2 3149   0.867   3.583   2.946
  990SOL     OW 3150   0.891   3.356   3.209
  990SOL    HW1 3151   0.976   3.312   3.181
  990SOL    HW2 3152   0.903   3.455   3.205
  991SOL     OW 3153   1.340   3.502   3.162
  991SOL    HW1 3154   1.309   3.409   3.179
  991SOL    HW2 3155   1.440   3.503   3.156
  992SOL     OW 3156   4.551   3.377   4.274
  992SOL    HW1 3157   4.535   3.279   4.287
  992SOL    HW2 3158   4.644   3.391   4.242
  993SOL     OW 3159   4.627   2.575   2.253
  993SOL    HW1 3160   4.680   2.634   2.314
  993SOL    HW2 3161   4.688   2.508   2.211
  994SOL     OW 3162   4.072   0.697   2.080
  994SOL    HW1 3163   4.121   0.627   2.027
  994SOL    HW2 3164   3.991   0.656   2.121
  995SOL     OW 3165   1.695   3.795   0.839
  995SOL    HW1 3166   1.776   3.737   0.844
  995SOL    HW2 3167   1.613   3.737   0.845
  996SOL     OW 3168   2.483   0.858   2.054
  996SOL    HW1 3169   2.479   0.924   1.979
  996SOL    HW2 3170   2.449   0.902   2.137
  997SOL     OW 3171   2.736   1.107   2.249
  997SOL    HW1 3172   2.829   1.072   2.252
  997SOL    HW2 3173   2.734   1.191   2.194
  998SOL     OW 3174   0.487   4.779   2.109
  998SOL    HW1 3175   0.411   4.829   2.068
  998SOL    HW2 3176   0.507   4.698   2.055
  999SOL     OW 3177   4.487   0.580   4.240
  999SOL    HW1 3178   4.543   0.653   4.280
  999SOL    HW2 3179   4.393   0.613   4.229
 1000SOL     OW 3180   4.388   2.892   0.881
 1000SOL    HW1 3181   4.385   2.792   0.893
 1000SOL    HW2 3182   4.294   2.926   0.875
 1001SOL     OW 3183   2.387   0.645   1.322
 1001SOL    HW1 3184   2.326   0.717   1.288
 1001SOL    HW2 3185   2.357   0.557   1.285
 1002SOL     OW 3186   1.584   2.882   4.606
 1002SOL    HW1 3187   1.661   2.873   4.543
 1002SOL    HW2 3188   1.499   2.877   4.553
 1003SOL     OW 3189   3.398   1.397   0.488
 1003SOL    HW1 3190   3.381   1.307   0.447
 1003SOL    HW2 3191   3.495   1.406   0.509
 1004SOL     OW 3192   2.652   0.455   3.873
 1004SOL    HW1 3193   2.591   0.488   3.945
 1004SOL    HW2 3194   2.717   0.389   3.912
 1005SOL     OW 3195   2.442   4.535   0.930
 1005SOL    HW1 3196   2.452   4.441   0.961
 1005SOL    HW2 3197   2.453   4.538   0.831
 1006SOL     OW 3198   1.468   1.111   4.651
 1006SOL    HW1 3199   1.465   1.072   4.743
 1006SOL    HW2 3200   1.505   1.044   4.587
 1007SOL     OW 3201   2.553   2.093   4.735
 1007SOL    HW1 3202   2.583   2.185   4.757
 1007SOL    HW2 3203   2.632   2.038   4.707
 1008SOL     OW 3204   1.271   2.711   1.321
 1008SOL    HW1 3205   1.250   2.792   1.266
 1008SOL    HW2 3206   1.186   2.665   1.346
 1009SOL     OW 3207   3.633   2.064   1.297
 1009SOL    HW1 3208   3.689   1.984   1.318
 1009SOL    HW2 3209   3.536   2.037   1.299
 1010SOL     OW 3210   2.962   1.795   4.741
 1010SOL    HW1 3211   3.047   1.743   4.739
 1010SOL    HW2 3212   2.960   1.853   4.822
 1011SOL     OW 3213   4.765   3.626   1.544
 1011SOL    HW1 3214   4.811   3.544   1.579
 1011SOL    HW2 3215   4.832   3.685   1.499
 1012SOL     OW 3216   0.625   0.222   1.577
 1012SOL    HW1 3217   0.712   0.270   1.567
 1012SOL    HW2 3218   0.590   0.238   1.669
 1013SOL     OW 3219   0.525   3.826   2.421
 1013SOL    HW1 3220   0.489   3.856   2.333
 1013SOL    HW2 3221   0.625   3.833   2.420
 1014SOL     OW 3222   0.651   1.230   1.551
 1014SOL    HW1 3223   0.723   1.167   1.581
 1014SOL    HW2 3224   0.588   1.180   1.491
 1015SOL     OW 3225   2.712   4.566   3.456
 1015SOL    HW1 3226   2.808   4.557   3.485
 1015SOL    HW2 3227   2.661   4.486   3.487
 1016SOL     OW 3228   3.625   2.599   3.477
 1016SOL    HW1 3229   3.545   2.604   3.536
 1016SOL    HW2 3230   3.678   2.517   3.501
 1017SOL     OW 3231   3.636   2.169   4.743
 1017SOL    HW1 3232   3.692   2.189   4.823
 1017SOL    HW2 3233   3.543   2.147   4.772
 1018SOL     OW 3234   0.382   0.602   0.387
 1018SOL    HW1 3235   0.324   0.594   0.306
 1018SOL    HW2 3236   0.472   0.563   0.367
 1019SOL     OW 3237   4.274   4.732   3.217
 1019SOL    HW1 3238   4.334   4.805   3.184
 1019SOL    HW2 3239   4.249   4.750   3.312
 1020SOL     OW 3240   1.864   0.448   3.938
 1020SOL    HW1 3241   1.765   0.451   3.925
 1020SOL    HW2 3242   1.894   0.353   3.938
 1021SOL     OW 3243   2.394   3.054   4.494
 1021SOL    HW1 3244   2.305   3.046   4.539
 1021SOL    HW2 3245   2.466   3.033   4.560
 1022SOL     OW 3246   4.074   0.359   2.136
 1022SOL    HW1 3247   3.989   0.372   2.086
 1022SOL    HW2 3248   4.093   0.440   2.192
 1023SOL     OW 3249   2.822   4.263   3.525
 1023SOL    HW1 3250   2.723   4.278   3.533
 1023SOL    HW2 3251   2.869   4.351   3.531
 1024SOL     OW 3252   3.545   2.334   3.703
 1024SOL    HW1 3253   3.638   2.356   3.734
 1024SOL    HW2 3254   3.490   2.418   3.704
 1025SOL     OW 3255   2.366   3.614   3.967
 1025SOL    HW1 3256   2.466   3.614   3.963
 1025SOL    HW2 3257   2.332   3.521   3.953
 1026SOL     OW 3258   4.106   4.460   3.555
 1026SOL    HW1 3259   4.037   4.390   3.574
 1026SOL    HW2 3260   4.059   4.548   3.542
 1027SOL     OW 3261   3.798   3.759   1.332
 1027SOL    HW1 3262   3.818   3.667   1.368
 1027SOL    HW2 3263   3.879   3.816   1.344
 1028SOL     OW 3264   0.776   0.243   0.806
 1028SOL    HW1 3265   0.839   0.166   0.814
 1028SOL    HW2 3266   0.827   0.329   0.810
 1029SOL     OW 3267   1.190   1.272   3.876
 1029SOL    HW1 3268   1.114   1.337   3.880
 1029SOL    HW2 3269   1.153   1.179   3.869
 1030SOL     OW 3270   1.502   1.770   4.501
 1030SOL    HW1 3271   1.415   1.720   4.505
 1030SOL    HW2 3272   1.577   1.704   4.507
 1031SOL     OW 3273   1.294   3.992   2.721
 1031SOL    HW1 3274   1.231   4.070   2.714
 1031SOL    HW2 3275   1.241   3.909   2.737
 1032SOL     OW 3276   4.131   3.632   0.965
 1032SOL    HW1 3277   4.046   3.669   1.002
 1032SOL    HW2 3278   4.201   3.703   0.968
 1033SOL     OW 3279   2.210   4.776   4.744
 1033SOL    HW1 3280   2.238   4.813   4.832
 1033SOL    HW2 3281   2.202   4.850   4.678
 1034SOL     OW 3282   0.718   2.232   4.367
 1034SOL    HW1 3283   0.667   2.297   4.424
 1034SOL    HW2 3284   0.793   2.281   4.321
 1035SOL     OW 3285   0.740   0.434   4.006
 1035SOL    HW1 3286   0.750   0.357   4.069
 1035SOL    HW2 3287   0.782   0.515   4.047
 1036SOL     OW 3288   0.818   3.791   2.229
 1036SOL    HW1 3289   0.800   3.886   2.202
 1036SOL    HW2 3290   0.731   3.744   2.242
 1037SOL     OW 3291   4.206   4.495   4.447
 1037SOL    HW1 3292   4.212   4.488   4.547
 1037SOL    HW2 3293   4.173   4.586   4.422
 1038SOL     OW 3294   4.744   2.758   4.673
 1038SOL    HW1 3295   4.829   2.804   4.700
 1038SOL    HW2 3296   4.739   2.669   4.718
 1039SOL     OW 3297   3.567   2.251   0.978
 1039SOL    HW1 3298   3.600   2.223   1.069
 1039SOL    HW2 3299   3.600   2.343   0.959
 1040SOL     OW 3300   1.298   4.344   3.945
 1040SOL    HW1 3301   1.220   4.364   4.003
 1040SOL    HW2 3302   1.291   4.250   3.910
 1041SOL     OW 3303   3.808   3.824   4.386
 1041SOL    HW1 3304   3.722   3.775   4.374
 1041SOL    HW2 3305   3.790   3.922   4.395
 1042SOL     OW 3306   1.314   4.177   2.977
 1042SOL    HW1 3307   1.216   4.161   2.988
 1042SOL    HW2 3308   1.334   4.194   2.881
 1043SOL     OW 3309   4.299   2.526   0.829
 1043SOL    HW1 3310   4.391   2.530   0.789
 1043SOL    HW2 3311   4.306   2.546   0.927
 1044SOL     OW 3312   2.597   4.663   0.219
 1044SOL    HW1 3313   2.667   4.649   0.150
 1044SOL    HW2 3314   2.515   4.611   0.194
 1045SOL     OW 3315   0.386   3.800   2.878
 1045SOL    HW1 3316   0.304   3.853   2.900
 1045SOL    HW2 3317   0.467   3.855   2.897
 1046SOL     OW 3318   1.223   4.281   4.509
 1046SOL    HW1 3319   1.289   4.280   4.434
 1046SOL    HW2 3320   1.271   4.272   4.596
 1047SOL     OW 3321   2.749   0.390   0.362
 1047SOL    HW1 3322   2.667   0.400   0.306
 1047SOL    HW2 3323   2.826   0.366   0.302
 1048SOL     OW 3324   4.570   1.682   4.074
 1048SOL    HW1 3325   4.598   1.766   4.028
 1048SOL    HW2 3326   4.551   1.701   4.170
 1049SOL     OW 3327   4.623   0.252   0.696
 1049SOL    HW1 3328   4.555   0.318   0.728
 1049SOL    HW2 3329   4.579   0.185   0.636
 1050SOL     OW 3330   1.629   2.243   3.736
 1050SOL    HW1 3331   1.662   2.258   3.643
 1050SOL    HW2 3332   1.666   2.314   3.796
 1051SOL     OW 3333   2.738   1.753   3.890
 1051SOL    HW1 3334   2.645   1.718   3.898
 1051SOL    HW2 3335   2.801   1.675   3.880
 1052SOL     OW 3336   3.114   0.249   4.374
 1052SOL    HW1 3337   3.210   0.225   4.370
 1052SOL    HW2 3338   3.078   0.225   4.465
 1053SOL     OW 3339   0.276   3.031   0.416
 1053SOL    HW1 3340   0.355   3.070   0.370
 1053SOL    HW2 3341   0.281   2.931   0.414
 1054SOL     OW 3342   4.581   4.758   1.594
 1054SOL    HW1 3343   4.633   4.673   1.595
 1054SOL    HW2 3344   4.484   4.737   1.594
 1055SOL     OW 3345   3.491   3.326   2.656
 1055SOL    HW1 3346   3.568   3.290   2.604
 1055SOL    HW2 3347   3.466   3.416   2.621
 1056SOL     OW 3348   1.030   1.865   4.299
 1056SOL    HW1 3349   1.105   1.890   4.237
 1056SOL    HW2 3350   1.062   1.876   4.394
 1057SOL     OW 3351   1.641   3.061   2.437
 1057SOL    HW1 3352   1.736   3.082   2.458
 1057SOL    HW2 3353   1.638   2.998   2.359
 1058SOL     OW 3354   4.265   0.775   0.909
 1058SOL    HW1 3355   4.274   0.872   0.932
 1058SOL    HW2 3356   4.174   0.743   0.937
 1059SOL     OW 3357   2.509   2.071   3.570
 1059SOL    HW1 3358   2.564   2.025   3.501
 1059SOL    HW2 3359   2.568   2.109   3.641
 1060SOL     OW 3360   0.847   0.859   0.322
 1060SOL    HW1 3361   0.768   0.814   0.364
 1060SOL    HW2 3362   0.818   0.943   0.278
 1061SOL     OW 3363   4.560   2.284   2.103
 1061SOL    HW1 3364   4.659   2.285   2.088
 1061SOL    HW2 3365   4.519   2.360   2.053
 1062SOL     OW 3366   1.669   2.074   3.992
 1062SOL    HW1 3367   1.610   2.023   4.055
 1062SOL    HW2 3368   1.751   2.104   4.041
 1063SOL     OW 3369   4.576   3.248   0.777
 1063SOL    HW1 3370   4.621   3.230   0.865
 1063SOL    HW2 3371   4.488   3.200   0.776
 1064SOL     OW 3372   0.225   3.195   4.624
 1064SOL    HW1 3373   0.251   3.251   4.703
 1064SOL    HW2 3374   0.255   3.240   4.540
 1065SOL     OW 3375   3.439   1.921   4.644
 1065SOL    HW1 3376   3.523   1.919   4.698
 1065SOL    HW2 3377   3.459   1.888   4.552
 1066SOL     OW 3378   1.968   0.615   1.615
 1066SOL    HW1 3379   1.975   0.701   1.565
 1066SOL    HW2 3380   1.984   0.632   1.712
 1067SOL     OW 3381   4.704   1.698   4.803
 1067SOL    HW1 3382   4.757   1.618   4.830
 1067SOL    HW2 3383   4.607   1.675   4.800
 1068SOL     OW 3384   3.367   4.194   0.330
 1068SOL    HW1 3385   3.463   4.220   0.339
 1068SOL    HW2 3386   3.354   4.102   0.366
 1069SOL     OW 3387   2.249   2.248   1.153
 1069SOL    HW1 3388   2.292   2.314   1.214
 1069SOL    HW2 3389   2.185   2.295   1.092
 1070SOL     OW 3390   2.773   2.914   3.614
 1070SOL    HW1 3391   2.764   2.916   3.515
 1070SOL    HW2 3392   2.736   2.827   3.649
 1071SOL     OW 3393   2.033   4.734   2.964
 1071SOL    HW1 3394   2.003   4.821   3.004
 1071SOL    HW2 3395   2.006   4.731   2.868
 1072SOL     OW 3396   0.630   0.881   1.971
 1072SOL    HW1 3397   0.539   0.840   1.974
 1072SOL    HW2 3398   0.674   0.869   2.060
 1073SOL     OW 3399   0.513   4.033   2.548
 1073SOL    HW1 3400   0.460   4.110   2.583
 1073SOL    HW2 3401   0.487   3.950   2.599
 1074SOL     OW 3402   1.519   4.063   0.775
 1074SOL    HW1 3403   1.591   4.010   0.820
 1074SOL    HW2 3404   1.533   4.061   0.676
 1075SOL     OW 3405   4.293   0.777   1.381
 1075SOL    HW1 3406   4.281   0.712   1.307
 1075SOL    HW2 3407   4.315   0.727   1.466
 1076SOL     OW 3408   2.574   3.951   4.523
 1076SOL    HW1 3409   2.605   3.934   4.617
 1076SOL    HW2 3410   2.528   3.869   4.488
 1077SOL     OW 3411   2.175   1.055   2.149
 1077SOL    HW1 3412   2.206   1.104   2.231
 1077SOL    HW2 3413   2.075   1.060   2.144
 1078SOL     OW 3414   1.614   2.452   0.712
 1078SOL    HW1 3415   1.590   2.478   0.806
 1078SOL    HW2 3416   1.702   2.494   0.688
 1079SOL     OW 3417   0.789   3.757   0.770
 1079SOL    HW1 3418   0.812   3.724   0.861
 1079SOL    HW2 3419   0.865   3.812   0.735
 1080SOL     OW 3420   1.467   2.306   3.041
 1080SOL    HW1 3421   1.368   2.312   3.029
 1080SOL    HW2 3422   1.501   2.393   3.078
 1081SOL     OW 3423   1.912   3.080   0.968
 1081SOL    HW1 3424   1.950   3.170   0.945
 1081SOL    HW2 3425   1.930   3.017   0.892
 1082SOL     OW 3426   0.862   2.430   2.006
 1082SOL    HW1 3427   0.921   2.492   1.953
 1082SOL    HW2 3428   0.920   2.366   2.057
 1083SOL     OW 3429   2.697   4.351   3.147
 1083SOL    HW1 3430   2.751   4.433   3.167
 1083SOL    HW2 3431   2.625   4.342   3.215
 1084SOL     OW 3432   0.903   2.311   1.726
 1084SOL    HW1 3433   0.860   2.299   1.816
 1084SOL    HW2 3434   0.831   2.317   1.657
 1085SOL     OW 3435   3.644   3.044   2.546
 1085SOL    HW1 3436   3.610   2.953   2.524
 1085SOL    HW2 3437   3.666   3.093   2.461
 1086SOL     OW 3438   0.257   4.638   1.058
 1086SOL    HW1 3439   0.194   4.570   1.095
 1086SOL    HW2 3440   0.241   4.646   0.960
 1087SOL     OW 3441   1.135   3.678   4.804
 1087SOL    HW1 3442   1.142   3.778   4.809
 1087SOL    HW2 3443   1.038   3.652   4.808
 1088SOL     OW 3444   2.977   4.053   3.971
 1088SOL    HW1 3445   2.974   4.083   3.875
 1088SOL    HW2 3446   2.894   4.001   3.991
 1089SOL     OW 3447   2.261   0.438   1.768
 1089SOL    HW1 3448   2.194   0.434   1.694
 1089SOL    HW2 3449   2.251   0.525   1.817
 1090SOL     OW 3450   1.417   1.340   4.064
 1090SOL    HW1 3451   1.348   1.338   4.137
 1090SOL    HW2 3452   1.399   1.417   4.003
 1091SOL     OW 3453   2.988   1.009   3.638
 1091SOL    HW1 3454   3.074   0.959   3.645
 1091SOL    HW2 3455   2.978   1.069   3.718
 1092SOL     OW 3456   1.858   1.220   3.944
 1092SOL    HW1 3457   1.912   1.136   3.950
 1092SOL    HW2 3458   1.880   1.278   4.022
 1093SOL     OW 3459   4.198   1.361   1.734
 1093SOL    HW1 3460   4.254   1.353   1.651
 1093SOL    HW2 3461   4.215   1.450   1.776
 1094SOL     OW 3462   4.123   2.763   3.487
 1094SOL    HW1 3463   4.165   2.673   3.477
 1094SOL    HW2 3464   4.027   2.757   3.460
 1095SOL     OW 3465   2.135   2.549   4.365
 1095SOL    HW1 3466   2.194   2.618   4.406
 1095SOL    HW2 3467   2.113   2.575   4.271
 1096SOL     OW 3468   3.762   2.496   3.206
 1096SOL    HW1 3469   3.748   2.550   3.288
 1096SOL    HW2 3470   3.823   2.546   3.144
 1097SOL     OW 3471   0.787   3.400   4.254
 1097SOL    HW1 3472   0.698   3.434   4.226
 1097SOL    HW2 3473   0.796   3.304   4.229
 1098SOL     OW 3474   0.302   2.943   1.230
 1098SOL    HW1 3475   0.397   2.921   1.206
 1098SOL    HW2 3476   0.301   3.004   1.309
 1099SOL     OW 3477   2.823   2.807   2.690
 1099SOL    HW1 3478   2.897   2.826   2.755
 1099SOL    HW2 3479   2.754   2.879   2.696
 1100SOL     OW 3480   3.199   3.791   1.887
 1100SOL    HW1 3481   3.211   3.719   1.956
 1100SOL    HW2 3482   3.248   3.766   1.804
 1101SOL     OW 3483   0.256   3.401   0.686
 1101SOL    HW1 3484   0.166   3.359   0.674
 1101SOL    HW2 3485   0.325   3.344   0.641
 1102SOL     OW 3486   1.315   0.573   0.582
 1102SOL    HW1 3487   1.232   0.621   0.613
 1102SOL    HW2 3488   1.303   0.546   0.487
 1103SOL     OW 3489   1.078   1.066   3.691
 1103SOL    HW1 3490   0.984   1.049   3.721
 1103SOL    HW2 3491   1.077   1.129   3.614
 1104SOL     OW 3492   3.576   2.154   4.140
 1104SOL    HW1 3493   3.544   2.248   4.144
 1104SOL    HW2 3494   3.676   2.153   4.137
 1105SOL     OW 3495   0.617   3.863   0.220
 1105SOL    HW1 3496   0.672   3.870   0.303
 1105SOL    HW2 3497   0.642   3.936   0.157
 1106SOL     OW 3498   0.626   4.687   3.033
 1106SOL    HW1 3499   0.534   4.718   3.056
 1106SOL    HW2 3500   0.686   4.766   3.020
 1107SOL     OW 3501   3.585   0.364   2.490
 1107SOL    HW1 3502   3.491   0.331   2.497
 1107SOL    HW2 3503   3.599   0.404   2.399
 1108SOL     OW 3504   4.385   0.748   4.028
 1108SOL    HW1 3505   4.473   0.731   3.983
 1108SOL    HW2 3506   4.394   0.826   4.089
 1109SOL     OW 3507   2.228   2.233   1.413
 1109SOL    HW1 3508   2.318   2.190   1.406
 1109SOL    HW2 3509   2.234   2.315   1.469
 1110SOL     OW 3510   1.544   2.950   0.418
 1110SOL    HW1 3511   1.643   2.959   0.430
 1110SOL    HW2 3512   1.499   2.987   0.499
 1111SOL     OW 3513   0.949   1.835   3.522
 1111SOL    HW1 3514   0.880   1.765   3.505
 1111SOL    HW2 3515   0.985   1.824   3.615
 1112SOL     OW 3516   1.732   1.094   2.175
 1112SOL    HW1 3517   1.810   1.156   2.167
 1112SOL    HW2 3518   1.765   1.000   2.180
 1113SOL     OW 3519   2.971   1.188   0.730
 1113SOL    HW1 3520   3.070   1.182   0.740
 1113SOL    HW2 3521   2.930   1.212   0.819
 1114SOL     OW 3522   3.284   4.532   3.094
 1114SOL    HW1 3523   3.334   4.618   3.089
 1114SOL    HW2 3524   3.345   4.457   3.069
 1115SOL     OW 3525   4.227   4.209   4.168
 1115SOL    HW1 3526   4.239   4.305   4.143
 1115SOL    HW2 3527   4.275   4.152   4.101
 1116SOL     OW 3528   1.671   2.787   3.478
 1116SOL    HW1 3529   1.623   2.874   3.491
 1116SOL    HW2 3530   1.617   2.714   3.518
 1117SOL     OW 3531   4.026   2.243   2.154
 1117SOL    HW1 3532   4.049   2.338   2.135
 1117SOL    HW2 3533   4.108   2.186   2.146
 1118SOL     OW 3534   3.376   0.843   0.788
 1118SOL    HW1 3535   3.357   0.783   0.866
 1118SOL    HW2 3536   3.471   0.830   0.759
 1119SOL     OW 3537   2.290   0.176   1.489
 1119SOL    HW1 3538   2.323   0.270   1.472
 1119SOL    HW2 3539   2.190   0.175   1.481
 1120SOL     OW 3540   4.405   2.346   4.688
 1120SOL    HW1 3541   4.492   2.385   4.718
 1120SOL    HW2 3542   4.350   2.418   4.645
 1121SOL     OW 3543   3.887   2.669   1.420
 1121SOL    HW1 3544   3.828   2.592   1.442
 1121SOL    HW2 3545   3.832   2.752   1.411
 1122SOL     OW 3546   0.336   1.137   3.855
 1122SOL    HW1 3547   0.405   1.065   3.848
 1122SOL    HW2 3548   0.378   1.225   3.833
 1123SOL     OW 3549   4.557   0.972   2.275
 1123SOL    HW1 3550   4.612   1.054   2.255
 1123SOL    HW2 3551   4.618   0.898   2.303
 1124SOL     OW 3552   1.426   1.724   2.522
 1124SOL    HW1 3553   1.367   1.661   2.573
 1124SOL    HW2 3554   1.416   1.706   2.424
 1125SOL     OW 3555   2.670   3.871   1.655
 1125SOL    HW1 3556   2.599   3.881   1.723
 1125SOL    HW2 3557   2.756   3.847   1.700
 1126SOL     OW 3558   3.038   0.435   1.082
 1126SOL    HW1 3559   3.003   0.354   1.034
 1126SOL    HW2 3560   3.136   0.424   1.097
 1127SOL     OW 3561   0.839   0.839   1.055
 1127SOL    HW1 3562   0.918   0.841   0.993
 1127SOL    HW2 3563   0.836   0.925   1.107
 1128SOL     OW 3564   3.462   2.885   1.945
 1128SOL    HW1 3565   3.526   2.809   1.952
 1128SOL    HW2 3566   3.512   2.971   1.939
 1129SOL     OW 3567   2.141   1.665   2.895
 1129SOL    HW1 3568   2.175   1.572   2.911
 1129SOL    HW2 3569   2.042   1.663   2.888
 1130SOL     OW 3570   1.063   4.020   4.508
 1130SOL    HW1 3571   1.051   4.119   4.497
 1130SOL    HW2 3572   1.074   3.999   4.604
 1131SOL     OW 3573   2.982   1.074   3.038
 1131SOL    HW1 3574   3.015   1.139   3.106
 1131SOL    HW2 3575   2.976   1.120   2.949
 1132SOL     OW 3576   2.224   2.400   3.063
 1132SOL    HW1 3577   2.252   2.392   3.158
 1132SOL    HW2 3578   2.134   2.445   3.058
 1133SOL     OW 3579   3.827   3.041   0.743
 1133SOL    HW1 3580   3.792   2.948   0.748
 1133SOL    HW2 3581   3.750   3.105   0.742
 1134SOL     OW 3582   4.508   1.358   2.321
 1134SOL    HW1 3583   4.428   1.418   2.325
 1134SOL    HW2 3584   4.591   1.414   2.319
 1135SOL     OW 3585   4.771   2.776   0.768
 1135SOL    HW1 3586   4.832   2.699   0.752
 1135SOL    HW2 3587   4.816   2.842   0.829
 1136SOL     OW 3588   2.888   0.682   3.527
 1136SOL    HW1 3589   2.955   0.744   3.570
 1136SOL    HW2 3590   2.804   0.732   3.509
 1137SOL     OW 3591   2.774   1.744   2.344
 1137SOL    HW1 3592   2.730   1.709   2.261
 1137SOL    HW2 3593   2.741   1.693   2.423
 1138SOL     OW 3594   1.058   4.186   1.357
 1138SOL    HW1 3595   1.008   4.134   1.288
 1138SOL    HW2 3596   1.009   4.181   1.444
 1139SOL     OW 3597   1.931   2.996   2.207
 1139SOL    HW1 3598   1.975   3.038   2.286
 1139SOL    HW2 3599   1.974   3.031   2.123
 1140SOL     OW 3600   2.173   1.596   3.721
 1140SOL    HW1 3601   2.272   1.585   3.715
 1140SOL    HW2 3602   2.141   1.653   3.646
 1141SOL     OW 3603   4.366   4.132   3.111
 1141SOL    HW1 3604   4.335   4.037   3.117
 1141SOL    HW2 3605   4.465   4.133   3.102
 1142SOL     OW 3606   1.439   3.466   1.620
 1142SOL    HW1 3607   1.452   3.367   1.627
 1142SOL    HW2 3608   1.528   3.511   1.613
 1143SOL     OW 3609   0.428   2.424   2.379
 1143SOL    HW1 3610   0.471   2.465   2.460
 1143SOL    HW2 3611   0.449   2.480   2.299
 1144SOL     OW 3612   1.550   4.349   3.105
 1144SOL    HW1 3613   1.565   4.445   3.082
 1144SOL    HW2 3614   1.625   4.294   3.068
 1145SOL     OW 3615   3.978   2.103   4.118
 1145SOL    HW1 3616   4.044   2.154   4.174
 1145SOL    HW2 3617   3.993   2.126   4.022
 1146SOL     OW 3618   1.726   4.367   3.487
 1146SOL    HW1 3619   1.650   4.397   3.545
 1146SOL    HW2 3620   1.750   4.273   3.511
 1147SOL     OW 3621   4.199   4.604   1.361
 1147SOL    HW1 3622   4.280   4.628   1.414
 1147SOL    HW2 3623   4.227   4.558   1.276
 1148SOL     OW 3624   2.859   1.464   3.016
 1148SOL    HW1 3625   2.761   1.481   3.003
 1148SOL    HW2 3626   2.876   1.365   3.011
 1149SOL     OW 3627   2.307   0.815   1.626
 1149SOL    HW1 3628   2.359   0.786   1.546
 1149SOL    HW2 3629   2.212   0.786   1.616
 1150SOL     OW 3630   4.751   4.645   4.623
 1150SOL    HW1 3631   4.772   4.727   4.676
 1150SOL    HW2 3632   4.661   4.655   4.581
 1151SOL     OW 3633   0.757   4.622   4.046
 1151SOL    HW1 3634   0.816   4.581   4.116
 1151SOL    HW2 3635   0.717   4.706   4.083
 1152SOL     OW 3636   0.947   2.858   1.581
 1152SOL    HW1 3637   0.997   2.830   1.499
 1152SOL    HW2 3638   0.898   2.943   1.563
 1153SOL     OW 3639   2.415   4.622   1.648
 1153SOL    HW1 3640   2.474   4.617   1.568
 1153SOL    HW2 3641   2.321   4.641   1.619
 1154SOL     OW 3642   3.475   2.088   3.815
 1154SOL    HW1 3643   3.560   2.136   3.794
 1154SOL    HW2 3644   3.406   2.110   3.746
 1155SOL     OW 3645   0.732   2.995   3.569
 1155SOL    HW1 3646   0.823   3.018   3.534
 1155SOL    HW2 3647   0.738   2.914   3.628
 1156SOL     OW 3648   1.013   0.523   2.322
 1156SOL    HW1 3649   1.086   0.456   2.332
 1156SOL    HW2 3650   0.925   0.475   2.321
 1157SOL     OW 3651   0.692   1.739   4.797
 1157SOL    HW1 3652   0.758   1.791   4.742
 1157SOL    HW2 3653   0.638   1.803   4.851
 1158SOL     OW 3654   3.841   1.541   2.573
 1158SOL    HW1 3655   3.754   1.571   2.532
 1158SOL    HW2 3656   3.870   1.609   2.640
 1159SOL     OW 3657   2.764   2.799   2.215
 1159SOL    HW1 3658   2.843   2.798   2.276
 1159SOL    HW2 3659   2.690   2.745   2.255
 1160SOL     OW 3660   2.940   3.084   2.512
 1160SOL    HW1 3661   2.958   3.135   2.427
 1160SOL    HW2 3662   2.914   2.990   2.489
 1161SOL     OW 3663   1.313   1.631   3.838
 1161SOL    HW1 3664   1.375   1.656   3.913
 1161SOL    HW2 3665   1.311   1.531   3.830
 1162SOL     OW 3666   1.093   1.390   0.853
 1162SOL    HW1 3667   1.024   1.325   0.820
 1162SOL    HW2 3668   1.172   1.339   0.886
 1163SOL     OW 3669   3.626   0.976   1.695
 1163SOL    HW1 3670   3.599   0.924   1.614
 1163SOL    HW2 3671   3.678   0.916   1.756
 1164SOL     OW 3672   4.378   1.046   0.720
 1164SOL    HW1 3673   4.424   1.134   0.731
 1164SOL    HW2 3674   4.295   1.045   0.776
 1165SOL     OW 3675   0.324   3.758   0.604
 1165SOL    HW1 3676   0.297   3.730   0.512
 1165SOL    HW2 3677   0.376   3.844   0.599
 1166SOL     OW 3678   1.181   3.762   2.071
 1166SOL    HW1 3679   1.254   3.806   2.124
 1166SOL    HW2 3680   1.207   3.666   2.054
 1167SOL     OW 3681   3.210   3.153   4.303
 1167SOL    HW1 3682   3.114   3.180   4.310
 1167SOL    HW2 3683   3.216   3.054   4.319
 1168SOL     OW 3684   2.879   1.294   4.827
 1168SOL    HW1 3685   2.784   1.303   4.798
 1168SOL    HW2 3686   2.915   1.384   4.851
 1169SOL     OW 3687   2.413   4.396   2.318
 1169SOL    HW1 3688   2.393   4.316   2.262
 1169SOL    HW2 3689   2.512   4.401   2.334
 1170SOL     OW 3690   1.514   0.830   1.175
 1170SOL    HW1 3691   1.510   0.890   1.095
 1170SOL    HW2 3692   1.476   0.877   1.254
 1171SOL     OW 3693   3.616   2.116   2.829
 1171SOL    HW1 3694   3.709   2.146   2.849
 1171SOL    HW2 3695   3.553   2.156   2.895
 1172SOL     OW 3696   2.555   1.605   1.840
 1172SOL    HW1 3697   2.579   1.567   1.751
 1172SOL    HW2 3698   2.460   1.582   1.861
 1173SOL     OW 3699   1.316   2.727   2.989
 1173SOL    HW1 3700   1.379   2.714   3.065
 1173SOL    HW2 3701   1.237   2.667   3.002
 1174SOL     OW 3702   3.086   0.246   0.275
 1174SOL    HW1 3703   3.049   0.339   0.271
 1174SOL    HW2 3704   3.186   0.251   0.269
 1175SOL     OW 3705   4.345   0.377   0.458
 1175SOL    HW1 3706   4.428   0.417   0.420
 1175SOL    HW2 3707   4.290   0.338   0.384
 1176SOL     OW 3708   1.996   4.500   2.237
 1176SOL    HW1 3709   2.063   4.435   2.274
 1176SOL    HW2 3710   2.011   4.511   2.139
 1177SOL     OW 3711   3.130   0.647   2.616
 1177SOL    HW1 3712   3.181   0.731   2.596
 1177SOL    HW2 3713   3.182   0.593   2.683
 1178SOL     OW 3714   3.662   4.587   3.066
 1178SOL    HW1 3715   3.724   4.572   3.144
 1178SOL    HW2 3716   3.622   4.678   3.074
 1179SOL     OW 3717   0.451   1.988   2.919
 1179SOL    HW1 3718   0.461   2.022   3.013
 1179SOL    HW2 3719   0.433   1.890   2.921
 1180SOL     OW 3720   2.584   2.870   3.222
 1180SOL    HW1 3721   2.631   2.939   3.167
 1180SOL    HW2 3722   2.630   2.782   3.210
 1181SOL     OW 3723   2.125   1.454   2.069
 1181SOL    HW1 3724   2.198   1.480   2.006
 1181SOL    HW2 3725   2.091   1.363   2.045
 1182SOL     OW 3726   0.704   2.588   1.645
 1182SOL    HW1 3727   0.797   2.577   1.680
 1182SOL    HW2 3728   0.681   2.686   1.642
 1183SOL     OW 3729   3.659   1.319   2.447
 1183SOL    HW1 3730   3.631   1.308   2.352
 1183SOL    HW2 3731   3.746   1.270   2.462
 1184SOL     OW 3732   1.535   3.713   3.371
 1184SOL    HW1 3733   1.537   3.792   3.310
 1184SOL    HW2 3734   1.495   3.635   3.323
 1185SOL     OW 3735   2.684   4.432   2.854
 1185SOL    HW1 3736   2.679   4.332   2.851
 1185SOL    HW2 3737   2.594   4.470   2.835
 1186SOL     OW 3738   3.895   4.721   2.268
 1186SOL    HW1 3739   3.868   4.775   2.348
 1186SOL    HW2 3740   3.858   4.764   2.186
 1187SOL     OW 3741   3.594   1.828   1.959
 1187SOL    HW1 3742   3.596   1.774   1.875
 1187SOL    HW2 3743   3.635   1.774   2.033
 1188SOL     OW 3744   3.299   3.626   2.796
 1188SOL    HW1 3745   3.368   3.555   2.806
 1188SOL    HW2 3746   3.340   3.715   2.815
 1189SOL     OW 3747   2.327   4.146   2.467
 1189SOL    HW1 3748   2.244   4.133   2.413
 1189SOL    HW2 3749   2.396   4.079   2.438
 1190SOL     OW 3750   2.182   2.951   2.787
 1190SOL    HW1 3751   2.201   2.854   2.795
 1190SOL    HW2 3752   2.260   2.997   2.744
 1191SOL     OW 3753   0.703   1.808   0.477
 1191SOL    HW1 3754   0.718   1.904   0.454
 1191SOL    HW2 3755   0.609   1.796   0.509
 1192SOL     OW 3756   2.362   3.492   3.617
 1192SOL    HW1 3757   2.347   3.591   3.617
 1192SOL    HW2 3758   2.274   3.445   3.633
 1193SOL     OW 3759   1.217   0.192   1.994
 1193SOL    HW1 3760   1.195   0.289   1.996
 1193SOL    HW2 3761   1.310   0.179   2.031
 1194SOL     OW 3762   3.422   4.632   1.411
 1194SOL    HW1 3763   3.385   4.705   1.354
 1194SOL    HW2 3764   3.356   4.610   1.483
 1195SOL     OW 3765   0.618   3.591   2.742
 1195SOL    HW1 3766   0.573   3.680   2.736
 1195SOL    HW2 3767   0.549   3.520   2.753
 1196SOL     OW 3768   3.173   0.208   3.437
 1196SOL    HW1 3769   3.140   0.203   3.531
 1196SOL    HW2 3770   3.263   0.164   3.431
 1197SOL     OW 3771   3.533   0.852   4.760
 1197SOL    HW1 3772   3.441   0.866   4.796
 1197SOL    HW2 3773   3.594   0.922   4.795
 1198SOL     OW 3774   2.098   2.757   1.429
 1198SOL    HW1 3775   2.120   2.854   1.439
 1198SOL    HW2 3776   2.183   2.705   1.420
 1199SOL     OW 3777   2.329   4.638   1.361
 1199SOL    HW1 3778   2.408   4.608   1.309
 1199SOL    HW2 3779   2.326   4.738   1.362
 1200SOL     OW 3780   0.983   1.811   1.565
 1200SOL    HW1 3781   1.038   1.894   1.563
 1200SOL    HW2 3782   0.887   1.836   1.580
 1201SOL     OW 3783   4.322   2.112   4.562
 1201SOL    HW1 3784   4.353   2.085   4.471
 1201SOL    HW2 3785   4.226   2.141   4.557
 1202SOL     OW 3786   3.540   1.913   1.567
 1202SOL    HW1 3787   3.632   1.880   1.546
 1202SOL    HW2 3788   3.525   2.000   1.520
 1203SOL     OW 3789   0.483   4.261   2.832
 1203SOL    HW1 3790   0.517   4.184   2.885
 1203SOL    HW2 3791   0.546   4.280   2.756
 1204SOL     OW 3792   0.832   3.199   2.897
 1204SOL    HW1 3793   0.786   3.113   2.875
 1204SOL    HW2 3794   0.927   3.180   2.921
 1205SOL     OW 3795   0.298   3.959   4.082
 1205SOL    HW1 3796   0.357   4.023   4.033
 1205SOL    HW2 3797   0.222   3.933   4.023
 1206SOL     OW 3798   3.269   2.983   3.476
 1206SOL    HW1 3799   3.246   3.013   3.384
 1206SOL    HW2 3800   3.190   2.937   3.516
 1207SOL     OW 3801   3.970   0.990   4.491
 1207SOL    HW1 3802   4.038   1.044   4.441
 1207SOL    HW2 3803   3.905   0.951   4.426
 1208SOL     OW 3804   1.978   1.780   3.510
 1208SOL    HW1 3805   1.909   1.839   3.467
 1208SOL    HW2 3806   2.054   1.836   3.542
 1209SOL     OW 3807   1.578   2.875   3.707
 1209SOL    HW1 3808   1.500   2.814   3.715
 1209SOL    HW2 3809   1.629   2.874   3.793
 1210SOL     OW 3810   1.983   0.653   1.942
 1210SOL    HW1 3811   1.933   0.739   1.953
 1210SOL    HW2 3812   2.081   0.673   1.937
 1211SOL     OW 3813   4.354   1.208   3.824
 1211SOL    HW1 3814   4.327   1.127   3.877
 1211SOL    HW2 3815   4.433   1.184   3.767
 1212SOL     OW 3816   4.448   4.752   0.500
 1212SOL    HW1 3817   4.513   4.677   0.496
 1212SOL    HW2 3818   4.496   4.837   0.524
 1213SOL     OW 3819   4.427   1.502   1.750
 1213SOL    HW1 3820   4.417   1.596   1.717
 1213SOL    HW2 3821   4.524   1.481   1.759
 1214SOL     OW 3822   4.762   2.453   0.828
 1214SOL    HW1 3823   4.834   2.418   0.767
 1214SOL    HW2 3824   4.805   2.503   0.903
 1215SOL     OW 3825   3.947   0.872   2.486
 1215SOL    HW1 3826   4.000   0.942   2.534
 1215SOL    HW2 3827   3.979   0.781   2.516
 1216SOL     OW 3828   3.497   4.385   2.311
 1216SOL    HW1 3829   3.449   4.305   2.349
 1216SOL    HW2 3830   3.509   4.453   2.384
 1217SOL     OW 3831   2.221   0.244   3.511
 1217SOL    HW1 3832   2.136   0.202   3.480
 1217SOL    HW2 3833   2.298   0.205   3.459
 1218SOL     OW 3834   2.946   2.519   1.775
 1218SOL    HW1 3835   2.978   2.568   1.694
 1218SOL    HW2 3836   2.854   2.482   1.757
 1219SOL     OW 3837   3.882   2.698   0.586
 1219SOL    HW1 3838   3.947   2.711   0.511
 1219SOL    HW2 3839   3.798   2.747   0.566
 1220SOL     OW 3840   3.251   0.595   3.246
 1220SOL    HW1 3841   3.331   0.610   3.189
 1220SOL    HW2 3842   3.257   0.504   3.288
 1221SOL     OW 3843   1.875   1.620   1.209
 1221SOL    HW1 3844   1.948   1.687   1.212
 1221SOL    HW2 3845   1.902   1.539   1.261
 1222SOL     OW 3846   1.960   2.362   3.798
 1222SOL    HW1 3847   1.903   2.389   3.720
 1222SOL    HW2 3848   1.946   2.426   3.873
 1223SOL     OW 3849   1.094   1.353   0.237
 1223SOL    HW1 3850   1.057   1.408   0.161
 1223SOL    HW2 3851   1.050   1.263   0.235
 1224SOL     OW 3852   3.981   0.966   0.346
 1224SOL    HW1 3853   4.016   1.050   0.387
 1224SOL    HW2 3854   3.887   0.980   0.316
 1225SOL     OW 3855   3.071   1.566   1.825
 1225SOL    HW1 3856   3.128   1.483   1.828
 1225SOL    HW2 3857   3.131   1.646   1.818
 1226SOL     OW 3858   3.770   1.342   3.316
 1226SOL    HW1 3859   3.716   1.262   3.342
 1226SOL    HW2 3860   3.867   1.316   3.309
 1227SOL     OW 3861   4.504   0.585   2.987
 1227SOL    HW1 3862   4.594   0.616   3.019
 1227SOL    HW2 3863   4.438   0.659   3.001
 1228SOL     OW 3864   3.615   3.355   0.620
 1228SOL    HW1 3865   3.685   3.343   0.690
 1228SOL    HW2 3866   3.643   3.428   0.558
 1229SOL     OW 3867   4.516   1.602   0.500
 1229SOL    HW1 3868   4.559   1.661   0.432
 1229SOL    HW2 3869   4.460   1.657   0.561
 1230SOL     OW 3870   3.518   0.932   2.041
 1230SOL    HW1 3871   3.482   1.016   2.080
 1230SOL    HW2 3872   3.456   0.899   1.970
 1231SOL     OW 3873   2.023   1.538   2.360
 1231SOL    HW1 3874   2.077   1.609   2.406
 1231SOL    HW2 3875   2.004   1.464   2.424
 1232SOL     OW 3876   3.422   0.862   3.780
 1232SOL    HW1 3877   3.468   0.947   3.804
 1232SOL    HW2 3878   3.378   0.873   3.691
 1233SOL     OW 3879   1.572   1.007   0.151
 1233SOL    HW1 3880   1.645   0.939   0.152
 1233SOL    HW2 3881   1.484   0.961   0.150
 1234SOL     OW 3882   0.519   1.256   0.404
 1234SOL    HW1 3883   0.616   1.232   0.413
 1234SOL    HW2 3884   0.489   1.302   0.488
 1235SOL     OW 3885   0.571   0.745   0.656
 1235SOL    HW1 3886   0.584   0.755   0.557
 1235SOL    HW2 3887   0.474   0.734   0.675
 1236SOL     OW 3888   0.538   3.799   1.409
 1236SOL    HW1 3889   0.548   3.703   1.435
 1236SOL    HW2 3890   0.626   3.845   1.421
 1237SOL     OW 3891   0.354   0.349   4.722
 1237SOL    HW1 3892   0.267   0.366   4.677
 1237SOL    HW2 3893   0.391   0.435   4.756
 1238SOL     OW 3894   4.578   2.409   1.614
 1238SOL    HW1 3895   4.524   2.342   1.562
 1238SOL    HW2 3896   4.673   2.378   1.617
 1239SOL     OW 3897   4.415   0.321   3.563
 1239SOL    HW1 3898   4.382   0.390   3.628
 1239SOL    HW2 3899   4.398   0.353   3.470
 1240SOL     OW 3900   2.968   4.617   1.029
 1240SOL    HW1 3901   2.977   4.518   1.022
 1240SOL    HW2 3902   2.873   4.643   1.015
 1241SOL     OW 3903   2.387   0.245   1.116
 1241SOL    HW1 3904   2.342   0.277   1.032
 1241SOL    HW2 3905   2.342   0.161   1.147
 1242SOL     OW 3906   1.081   3.986   2.967
 1242SOL    HW1 3907   0.984   3.963   2.970
 1242SOL    HW2 3908   1.135   3.902   2.968
 1243SOL     OW 3909   2.273   4.809   0.869
 1243SOL    HW1 3910   2.187   4.760   0.882
 1243SOL    HW2 3911   2.342   4.773   0.932
 1244SOL     OW 3912   2.285   2.002   4.159
 1244SOL    HW1 3913   2.326   2.091   4.134
 1244SOL    HW2 3914   2.188   2.004   4.139
 1245SOL     OW 3915   4.559   4.072   0.757
 1245SOL    HW1 3916   4.480   4.011   0.755
 1245SOL    HW2 3917   4.588   4.093   0.664
 1246SOL     OW 3918   4.309   2.179   1.967
 1246SOL    HW1 3919   4.298   2.164   1.869
 1246SOL    HW2 3920   4.282   2.273   1.989
 1247SOL     OW 3921   3.903   3.532   0.704
 1247SOL    HW1 3922   3.932   3.538   0.608
 1247SOL    HW2 3923   3.984   3.524   0.762
 1248SOL     OW 3924   3.847   2.317   0.949
 1248SOL    HW1 3925   3.927   2.375   0.946
 1248SOL    HW2 3926   3.876   2.221   0.952
 1249SOL     OW 3927   2.291   2.840   4.364
 1249SOL    HW1 3928   2.294   2.808   4.459
 1249SOL    HW2 3929   2.197   2.865   4.341
 1250SOL     OW 3930   1.638   0.721   1.774
 1250SOL    HW1 3931   1.633   0.629   1.735
 1250SOL    HW2 3932   1.724   0.731   1.823
 1251SOL     OW 3933   1.787   1.196   0.290
 1251SOL    HW1 3934   1.876   1.235   0.269
 1251SOL    HW2 3935   1.797   1.097   0.304
 1252SOL     OW 3936   4.178   1.595   2.501
 1252SOL    HW1 3937   4.115   1.673   2.504
 1252SOL    HW2 3938   4.266   1.623   2.539
 1253SOL     OW 3939   0.791   1.369   3.240
 1253SOL    HW1 3940   0.823   1.339   3.330
 1253SOL    HW2 3941   0.865   1.360   3.174
 1254SOL     OW 3942   0.674   4.668   4.395
 1254SOL    HW1 3943   0.716   4.751   4.359
 1254SOL    HW2 3944   0.580   4.688   4.421
 1255SOL     OW 3945   3.437   3.801   0.376
 1255SOL    HW1 3946   3.469   3.766   0.464
 1255SOL    HW2 3947   3.367   3.870   0.391
 1256SOL     OW 3948   3.496   2.678   0.665
 1256SOL    HW1 3949   3.595   2.668   0.665
 1256SOL    HW2 3950   3.473   2.772   0.639
 1257SOL     OW 3951   4.051   3.237   0.517
 1257SOL    HW1 3952   4.074   3.148   0.556
 1257SOL    HW2 3953   4.133   3.276   0.474
 1258SOL     OW 3954   2.941   0.589   0.815
 1258SOL    HW1 3955   3.026   0.567   0.863
 1258SOL    HW2 3956   2.940   0.686   0.793
 1259SOL     OW 3957   2.074   0.645   1.204
 1259SOL    HW1 3958   1.998   0.624   1.266
 1259SOL    HW2 3959   2.062   0.738   1.170
 1260SOL     OW 3960   2.955   2.022   0.312
 1260SOL    HW1 3961   2.994   2.108   0.280
 1260SOL    HW2 3962   2.894   2.040   0.390
 1261SOL     OW 3963   2.996   4.629   2.197
 1261SOL    HW1 3964   2.943   4.607   2.115
 1261SOL    HW2 3965   2.948   4.699   2.250
 1262SOL     OW 3966   0.788   0.723   4.830
 1262SOL    HW1 3967   0.717   0.790   4.850
 1262SOL    HW2 3968   0.852   0.762   4.763
 1263SOL     OW 3969   4.213   3.020   2.957
 1263SOL    HW1 3970   4.125   2.992   2.994
 1263SOL    HW2 3971   4.286   2.973   3.006
 1264SOL     OW 3972   1.143   1.765   2.950
 1264SOL    HW1 3973   1.197   1.705   3.009
 1264SOL    HW2 3974   1.203   1.837   2.913
 1265SOL     OW 3975   1.178   2.446   2.100
 1265SOL    HW1 3976   1.244   2.465   2.173
 1265SOL    HW2 3977   1.220   2.386   2.033
 1266SOL     OW 3978   3.756   0.871   4.651
 1266SOL    HW1 3979   3.731   0.802   4.583
 1266SOL    HW2 3980   3.749   0.962   4.608
 1267SOL     OW 3981   3.590   4.044   2.915
 1267SOL    HW1 3982   3.688   4.026   2.915
 1267SOL    HW2 3983   3.540   3.958   2.916
 1268SOL     OW 3984   0.557   2.649   3.377
 1268SOL    HW1 3985   0.612   2.733   3.381
 1268SOL    HW2 3986   0.618   2.570   3.377
 1269SOL     OW 3987   3.175   4.448   4.386
 1269SOL    HW1 3988   3.105   4.394   4.338
 1269SOL    HW2 3989   3.174   4.542   4.350
 1270SOL     OW 3990   2.980   0.954   4.213
 1270SOL    HW1 3991   2.956   1.050   4.226
 1270SOL    HW2 3992   3.052   0.948   4.143
 1271SOL     OW 3993   1.046   4.313   2.424
 1271SOL    HW1 3994   0.997   4.384   2.372
 1271SOL    HW2 3995   1.099   4.357   2.497
 1272SOL     OW 3996   0.230   1.469   1.829
 1272SOL    HW1 3997   0.200   1.381   1.791
 1272SOL    HW2 3998   0.281   1.452   1.913
 1273SOL     OW 3999   3.968   2.979   3.616
 1273SOL    HW1 4000   4.045   3.012   3.672
 1273SOL    HW2 4001   3.889   2.962   3.675
 1274SOL     OW 4002   3.980   1.536   3.429
 1274SOL    HW1 4003   4.051   1.604   3.409
 1274SOL    HW2 4004   3.893   1.568   3.391
 1275SOL     OW 4005   1.420   2.341   4.311
 1275SOL    HW1 4006   1.480   2.420   4.325
 1275SOL    HW2 4007   1.463   2.279   4.245
 1276SOL     OW 4008   2.251   2.141   3.512
 1276SOL    HW1 4009   2.170   2.198   3.501
 1276SOL    HW2 4010   2.227   2.059   3.565
 1277SOL     OW 4011   1.793   4.646   2.451
 1277SOL    HW1 4012   1.887   4.617   2.432
 1277SOL    HW2 4013   1.736   4.565   2.465
 1278SOL     OW 4014   0.901   2.104   4.688
 1278SOL    HW1 4015   0.873   2.200   4.685
 1278SOL    HW2 4016   0.839   2.050   4.632
 1279SOL     OW 4017   4.226   1.893   0.532
 1279SOL    HW1 4018   4.135   1.852   0.527
 1279SOL    HW2 4019   4.294   1.820   0.535
 1280SOL     OW 4020   3.708   3.934   0.389
 1280SOL    HW1 4021   3.801   3.921   0.421
 1280SOL    HW2 4022   3.660   3.846   0.390
 1281SOL     OW 4023   0.955   4.322   1.870
 1281SOL    HW1 4024   0.953   4.341   1.772
 1281SOL    HW2 4025   0.907   4.236   1.888
 1282SOL     OW 4026   0.199   1.305   3.390
 1282SOL    HW1 4027   0.266   1.376   3.413
 1282SOL    HW2 4028   0.246   1.230   3.344
 1283SOL     OW 4029   0.735   1.856   2.586
 1283SOL    HW1 4030   0.696   1.895   2.503
 1283SOL    HW2 4031   0.700   1.907   2.665
 1284SOL     OW 4032   3.516   3.587   0.660
 1284SOL    HW1 4033   3.439   3.631   0.706
 1284SOL    HW2 4034   3.600   3.639   0.679
 1285SOL     OW 4035   0.728   3.015   1.703
 1285SOL    HW1 4036   0.722   3.114   1.720
 1285SOL    HW2 4037   0.636   2.980   1.685
 1286SOL     OW 4038   4.618   4.360   2.007
 1286SOL    HW1 4039   4.622   4.284   1.943
 1286SOL    HW2 4040   4.579   4.329   2.094
 1287SOL     OW 4041   4.215   4.677   3.882
 1287SOL    HW1 4042   4.235   4.755   3.823
 1287SOL    HW2 4043   4.269   4.685   3.966
 1288SOL     OW 4044   0.964   0.711   1.507
 1288SOL    HW1 4045   0.952   0.621   1.465
 1288SOL    HW2 4046   0.983   0.700   1.604
 1289SOL     OW 4047   2.273   1.138   2.926
 1289SOL    HW1 4048   2.253   1.046   2.890
 1289SOL    HW2 4049   2.317   1.129   3.015
 1290SOL     OW 4050   2.020   4.323   3.758
 1290SOL    HW1 4051   1.960   4.306   3.679
 1290SOL    HW2 4052   2.058   4.235   3.788
 1291SOL     OW 4053   2.304   4.758   3.248
 1291SOL    HW1 4054   2.389   4.731   3.202
 1291SOL    HW2 4055   2.306   4.726   3.342
 1292SOL     OW 4056   1.734   1.029   2.717
 1292SOL    HW1 4057   1.683   1.114   2.705
 1292SOL    HW2 4058   1.711   0.989   2.806
 1293SOL     OW 4059   3.212   2.284   3.727
 1293SOL    HW1 4060   3.274   2.268   3.649
 1293SOL    HW2 4061   3.120   2.254   3.702
 1294SOL     OW 4062   1.498   4.585   4.571
 1294SOL    HW1 4063   1.553   4.502   4.568
 1294SOL    HW2 4064   1.558   4.665   4.580
 1295SOL     OW 4065   3.031   4.705   3.176
 1295SOL    HW1 4066   3.051   4.629   3.114
 1295SOL    HW2 4067   3.004   4.785   3.122
 1296SOL     OW 4068   1.195   2.905   1.011
 1296SOL    HW1 4069   1.251   2.986   1.030
 1296SOL    HW2 4070   1.169   2.903   0.915
 1297SOL     OW 4071   1.006   0.480   1.952
 1297SOL    HW1 4072   0.919   0.442   1.982
 1297SOL    HW2 4073   1.056   0.516   2.031
 1298SOL     OW 4074   1.196   3.727   4.364
 1298SOL    HW1 4075   1.173   3.822   4.386
 1298SOL    HW2 4076   1.295   3.714   4.374
 1299SOL     OW 4077   4.330   2.400   1.477
 1299SOL    HW1 4078   4.373   2.487   1.456
 1299SOL    HW2 4079   4.232   2.407   1.458
 1300SOL     OW 4080   4.479   2.899   3.896
 1300SOL    HW1 4081   4.569   2.942   3.893
 1300SOL    HW2 4082   4.490   2.800   3.881
 1301SOL     OW 4083   1.137   2.103   1.333
 1301SOL    HW1 4084   1.055   2.053   1.363
 1301SOL    HW2 4085   1.217   2.060   1.374
 1302SOL     OW 4086   2.414   1.907   2.823
 1302SOL    HW1 4087   2.384   1.995   2.859
 1302SOL    HW2 4088   2.452   1.852   2.898
 1303SOL     OW 4089   2.558   3.307   3.763
 1303SOL    HW1 4090   2.470   3.333   3.802
 1303SOL    HW2 4091   2.603   3.388   3.727
 1304SOL     OW 4092   2.240   1.888   3.333
 1304SOL    HW1 4093   2.326   1.935   3.355
 1304SOL    HW2 4094   2.167   1.956   3.326
 1305SOL     OW 4095   1.705   4.045   1.464
 1305SOL    HW1 4096   1.738   3.991   1.387
 1305SOL    HW2 4097   1.630   4.103   1.432
 1306SOL     OW 4098   2.894   1.571   2.622
 1306SOL    HW1 4099   2.977   1.521   2.648
 1306SOL    HW2 4100   2.905   1.610   2.531
 1307SOL     OW 4101   4.172   4.272   4.538
 1307SOL    HW1 4102   4.150   4.253   4.442
 1307SOL    HW2 4103   4.090   4.304   4.585
 1308SOL     OW 4104   4.234   0.261   3.026
 1308SOL    HW1 4105   4.166   0.249   3.099
 1308SOL    HW2 4106   4.198   0.222   2.942
 1309SOL     OW 4107   1.637   0.657   0.780
 1309SOL    HW1 4108   1.650   0.557   0.783
 1309SOL    HW2 4109   1.540   0.677   0.772
 1310SOL     OW 4110   2.695   1.323   0.831
 1310SOL    HW1 4111   2.667   1.293   0.739
 1310SOL    HW2 4112   2.651   1.410   0.851
 1311SOL     OW 4113   4.144   0.347   1.327
 1311SOL    HW1 4114   4.229   0.313   1.366
 1311SOL    HW2 4115   4.150   0.447   1.316
 1312SOL     OW 4116   2.325   1.057   4.530
 1312SOL    HW1 4117   2.260   1.132   4.527
 1312SOL    HW2 4118   2.402   1.079   4.470
 1313SOL     OW 4119   1.109   0.308   0.843
 1313SOL    HW1 4120   1.088   0.213   0.822
 1313SOL    HW2 4121   1.208   0.322   0.840
 1314SOL     OW 4122   4.562   2.688   0.579
 1314SOL    HW1 4123   4.578   2.666   0.675
 1314SOL    HW2 4124   4.599   2.615   0.522
 1315SOL     OW 4125   2.980   3.772   4.236
 1315SOL    HW1 4126   3.071   3.811   4.227
 1315SOL    HW2 4127   2.914   3.845   4.250
 1316SOL     OW 4128   3.591   3.160   4.609
 1316SOL    HW1 4129   3.580   3.209   4.523
 1316SOL    HW2 4130   3.608   3.063   4.590
 1317SOL     OW 4131   0.327   3.244   1.685
 1317SOL    HW1 4132   0.331   3.266   1.588
 1317SOL    HW2 4133   0.233   3.256   1.718
 1318SOL     OW 4134   3.476   3.399   3.540
 1318SOL    HW1 4135   3.538   3.478   3.544
 1318SOL    HW2 4136   3.525   3.318   3.571
 1319SOL     OW 4137   1.187   1.639   4.487
 1319SOL    HW1 4138   1.122   1.707   4.521
 1319SOL    HW2 4139   1.139   1.577   4.425
 1320SOL     OW 4140   1.922   2.156   4.524
 1320SOL    HW1 4141   1.854   2.086   4.504
 1320SOL    HW2 4142   1.894   2.206   4.606
 1321SOL     OW 4143   1.419   0.664   3.049
 1321SOL    HW1 4144   1.475   0.747   3.049
 1321SOL    HW2 4145   1.478   0.584   3.048
 1322SOL     OW 4146   1.934   0.416   1.300
 1322SOL    HW1 4147   1.843   0.434   1.261
 1322SOL    HW2 4148   1.929   0.334   1.357
 1323SOL     OW 4149   3.454   1.981   0.690
 1323SOL    HW1 4150   3.440   2.077   0.713
 1323SOL    HW2 4151   3.369   1.931   0.707
 1324SOL     OW 4152   2.879   1.972   4.549
 1324SOL    HW1 4153   2.779   1.976   4.555
 1324SOL    HW2 4154   2.908   1.876   4.544
 1325SOL     OW 4155   4.354   3.536   4.766
 1325SOL    HW1 4156   4.324   3.628   4.788
 1325SOL    HW2 4157   4.352   3.480   4.848
 1326SOL     OW 4158   1.519   1.333   0.270
 1326SOL    HW1 4159   1.444   1.268   0.284
 1326SOL    HW2 4160   1.567   1.310   0.186
 1327SOL     OW 4161   1.348   4.474   3.587
 1327SOL    HW1 4162   1.414   4.409   3.623
 1327SOL    HW2 4163   1.264   4.470   3.642
 1328SOL     OW 4164   2.615   4.064   1.114
 1328SOL    HW1 4165   2.546   4.106   1.172
 1328SOL    HW2 4166   2.603   3.965   1.114
 1329SOL     OW 4167   1.592   1.459   3.640
 1329SOL    HW1 4168   1.515   1.523   3.641
 1329SOL    HW2 4169   1.677   1.511   3.640
 1330SOL     OW 4170   3.842   4.126   1.294
 1330SOL    HW1 4171   3.898   4.045   1.275
 1330SOL    HW2 4172   3.746   4.099   1.299
 1331SOL     OW 4173   0.287   1.417   0.419
 1331SOL    HW1 4174   0.194   1.416   0.457
 1331SOL    HW2 4175   0.331   1.503   0.443
 1332SOL     OW 4176   3.333   3.231   2.776
 1332SOL    HW1 4177   3.372   3.171   2.846
 1332SOL    HW2 4178   3.236   3.209   2.765
 1333SOL     OW 4179   2.792   2.185   3.909
 1333SOL    HW1 4180   2.834   2.216   3.823
 1333SOL    HW2 4181   2.847   2.111   3.947
 1334SOL     OW 4182   3.886   4.121   3.255
 1334SOL    HW1 4183   3.956   4.051   3.274
 1334SOL    HW2 4184   3.928   4.211   3.260
 1335SOL     OW 4185   3.933   4.732   1.575
 1335SOL    HW1 4186   3.875   4.750   1.654
 1335SOL    HW2 4187   3.926   4.636   1.549
 1336SOL     OW 4188   3.861   1.533   2.251
 1336SOL    HW1 4189   3.788   1.498   2.309
 1336SOL    HW2 4190   3.884   1.627   2.278
 1337SOL     OW 4191   1.544   1.720   2.182
 1337SOL    HW1 4192   1.536   1.786   2.257
 1337SOL    HW2 4193   1.490   1.639   2.203
 1338SOL     OW 4194   2.163   2.911   0.672
 1338SOL    HW1 4195   2.158   3.010   0.680
 1338SOL    HW2 4196   2.180   2.871   0.762
 1339SOL     OW 4197   2.587   3.036   1.378
 1339SOL    HW1 4198   2.567   2.950   1.332
 1339SOL    HW2 4199   2.524   3.048   1.455
 1340SOL     OW 4200   0.868   1.147   3.117
 1340SOL    HW1 4201   0.786   1.177   3.068
 1340SOL    HW2 4202   0.945   1.143   3.053
 1341SOL     OW 4203   2.479   0.726   1.093
 1341SOL    HW1 4204   2.421   0.648   1.068
 1341SOL    HW2 4205   2.421   0.807   1.103
 1342SOL     OW 4206   1.258   3.032   4.313
 1342SOL    HW1 4207   1.246   3.105   4.380
 1342SOL    HW2 4208   1.185   2.965   4.324
 1343SOL     OW 4209   3.459   0.601   2.531
 1343SOL    HW1 4210   3.381   0.663   2.535
 1343SOL    HW2 4211   3.544   0.654   2.535
 1344SOL     OW 4212   4.634   1.737   0.743
 1344SOL    HW1 4213   4.587   1.677   0.807
 1344SOL    HW2 4214   4.713   1.689   0.704
 1345SOL     OW 4215   1.290   1.886   2.163
 1345SOL    HW1 4216   1.256   1.978   2.143
 1345SOL    HW2 4217   1.212   1.827   2.186
 1346SOL     OW 4218   2.818   1.866   4.168
 1346SOL    HW1 4219   2.878   1.890   4.245
 1346SOL    HW2 4220   2.840   1.773   4.138
 1347SOL     OW 4221   1.470   2.726   1.601
 1347SOL    HW1 4222   1.458   2.761   1.694
 1347SOL    HW2 4223   1.465   2.801   1.536
 1348SOL     OW 4224   2.254   4.620   4.319
 1348SOL    HW1 4225   2.168   4.662   4.349
 1348SOL    HW2 4226   2.235   4.556   4.244
 1349SOL     OW 4227   1.948   1.131   3.258
 1349SOL    HW1 4228   2.037   1.175   3.255
 1349SOL    HW2 4229   1.921   1.105   3.165
 1350SOL     OW 4230   0.683   4.832   1.605
 1350SOL    HW1 4231   0.720   4.739   1.595
 1350SOL    HW2 4232   0.668   4.851   1.702
 1351SOL     OW 4233   2.267   0.661   0.217
 1351SOL    HW1 4234   2.190   0.616   0.262
 1351SOL    HW2 4235   2.232   0.726   0.150
 1352SOL     OW 4236   0.198   2.066   3.128
 1352SOL    HW1 4237   0.152   2.045   3.215
 1352SOL    HW2 4238   0.262   1.992   3.106
 1353SOL     OW 4239   1.798   4.618   1.020
 1353SOL    HW1 4240   1.848   4.657   1.097
 1353SOL    HW2 4241   1.759   4.530   1.048
 1354SOL     OW 4242   0.273   2.475   3.745
 1354SOL    HW1 4243   0.254   2.568   3.775
 1354SOL    HW2 4244   0.353   2.475   3.685
 1355SOL     OW 4245   0.938   1.531   1.116
 1355SOL    HW1 4246   1.030   1.567   1.105
 1355SOL    HW2 4247   0.886   1.593   1.176
 1356SOL     OW 4248   1.325   0.971   1.936
 1356SOL    HW1 4249   1.386   1.013   1.869
 1356SOL    HW2 4250   1.232   0.967   1.898
 1357SOL     OW 4251   1.361   4.182   1.339
 1357SOL    HW1 4252   1.270   4.147   1.316
 1357SOL    HW2 4253   1.416   4.185   1.256
 1358SOL     OW 4254   0.919   2.858   4.255
 1358SOL    HW1 4255   0.865   2.911   4.322
 1358SOL    HW2 4256   0.895   2.761   4.264
 1359SOL     OW 4257   0.494   0.582   4.144
 1359SOL    HW1 4258   0.418   0.552   4.201
 1359SOL    HW2 4259   0.488   0.681   4.131
 1360SOL     OW 4260   4.488   3.963   4.115
 1360SOL    HW1 4261   4.554   3.929   4.048
 1360SOL    HW2 4262   4.484   4.063   4.109
 1361SOL     OW 4263   2.657   0.787   0.872
 1361SOL    HW1 4264   2.614   0.711   0.920
 1361SOL    HW2 4265   2.624   0.790   0.778
 1362SOL     OW 4266   1.820   3.342   2.711
 1362SOL    HW1 4267   1.776   3.361   2.798
 1362SOL    HW2 4268   1.751   3.306   2.647
 1363SOL     OW 4269   4.715   3.463   2.025
 1363SOL    HW1 4270   4.730   3.365   2.009
 1363SOL    HW2 4271   4.625   3.476   2.067
 1364SOL     OW 4272   1.756   2.630   1.376
 1364SOL    HW1 4273   1.799   2.712   1.339
 1364SOL    HW2 4274   1.698   2.655   1.453
 1365SOL     OW 4275   2.753   1.656   3.214
 1365SOL    HW1 4276   2.809   1.727   3.257
 1365SOL    HW2 4277   2.758   1.667   3.115
 1366SOL     OW 4278   3.602   2.598   2.908
 1366SOL    HW1 4279   3.611   2.643   2.997
 1366SOL    HW2 4280   3.505   2.592   2.884
 1367SOL     OW 4281   1.173   1.633   2.314
 1367SOL    HW1 4282   1.255   1.615   2.260
 1367SOL    HW2 4283   1.097   1.651   2.252
 1368SOL     OW 4284   0.943   0.424   4.762
 1368SOL    HW1 4285   0.935   0.348   4.827
 1368SOL    HW2 4286   0.904   0.397   4.674
 1369SOL     OW 4287   2.410   3.628   2.599
 1369SOL    HW1 4288   2.433   3.685   2.519
 1369SOL    HW2 4289   2.491   3.622   2.658
 1370SOL     OW 4290   4.159   3.884   1.549
 1370SOL    HW1 4291   4.065   3.892   1.583
 1370SOL    HW2 4292   4.157   3.834   1.462
 1371SOL     OW 4293   1.342   3.917   1.171
 1371SOL    HW1 4294   1.384   3.842   1.120
 1371SOL    HW2 4295   1.249   3.932   1.137
 1372SOL     OW 4296   0.378   3.629   4.306
 1372SOL    HW1 4297   0.359   3.684   4.224
 1372SOL    HW2 4298   0.292   3.590   4.339
 1373SOL     OW 4299   1.505   3.189   4.498
 1373SOL    HW1 4300   1.469   3.097   4.486
 1373SOL    HW2 4301   1.604   3.183   4.516
 1374SOL     OW 4302   1.289   4.586   0.829
 1374SOL    HW1 4303   1.361   4.569   0.761
 1374SOL    HW2 4304   1.247   4.498   0.854
 1375SOL     OW 4305   3.243   1.829   4.585
 1375SOL    HW1 4306   3.199   1.747   4.547
 1375SOL    HW2 4307   3.246   1.821   4.685
 1376SOL     OW 4308   1.741   1.941   4.694
 1376SOL    HW1 4309   1.651   1.950   4.649
 1376SOL    HW2 4310   1.765   2.029   4.735
 1377SOL     OW 4311   2.490   4.132   1.453
 1377SOL    HW1 4312   2.430   4.105   1.528
 1377SOL    HW2 4313   2.520   4.050   1.405
 1378SOL     OW 4314   2.129   1.887   0.928
 1378SOL    HW1 4315   2.158   1.803   0.883
 1378SOL    HW2 4316   2.208   1.948   0.937
 1379SOL     OW 4317   2.968   3.014   3.356
 1379SOL    HW1 4318   2.962   2.930   3.301
 1379SOL    HW2 4319   2.877   3.053   3.366
 1380SOL     OW 4320   2.972   3.967   4.502
 1380SOL    HW1 4321   3.057   4.019   4.499
 1380SOL    HW2 4322   2.919   3.987   4.420
 1381SOL     OW 4323   0.316   3.844   0.205
 1381SOL    HW1 4324   0.345   3.761   0.252
 1381SOL    HW2 4325   0.278   3.908   0.272
 1382SOL     OW 4326   2.835   1.585   4.798
 1382SOL    HW1 4327   2.780   1.668   4.788
 1382SOL    HW2 4328   2.890   1.573   4.716
 1383SOL     OW 4329   0.997   1.338   4.390
 1383SOL    HW1 4330   1.042   1.396   4.323
 1383SOL    HW2 4331   1.028   1.244   4.379
 1384SOL     OW 4332   1.064   3.373   1.037
 1384SOL    HW1 4333   1.044   3.280   1.007
 1384SOL    HW2 4334   1.156   3.377   1.076
 1385SOL     OW 4335   3.920   3.263   1.802
 1385SOL    HW1 4336   3.938   3.258   1.704
 1385SOL    HW2 4337   3.835   3.314   1.817
 1386SOL     OW 4338   2.808   0.850   2.540
 1386SOL    HW1 4339   2.741   0.923   2.531
 1386SOL    HW2 4340   2.899   0.885   2.516
 1387SOL     OW 4341   1.293   3.902   1.476
 1387SOL    HW1 4342   1.377   3.941   1.514
 1387SOL    HW2 4343   1.240   3.861   1.549
 1388SOL     OW 4344   3.507   3.782   3.980
 1388SOL    HW1 4345   3.408   3.776   3.991
 1388SOL    HW2 4346   3.529   3.860   3.922
 1389SOL     OW 4347   0.853   2.386   2.307
 1389SOL    HW1 4348   0.903   2.471   2.294
 1389SOL    HW2 4349   0.913   2.309   2.284
 1390SOL     OW 4350   1.004   1.891   2.283
 1390SOL    HW1 4351   1.029   1.952   2.207
 1390SOL    HW2 4352   1.070   1.902   2.357
 1391SOL     OW 4353   1.164   3.139   2.455
 1391SOL    HW1 4354   1.161   3.212   2.523
 1391SOL    HW2 4355   1.088   3.151   2.391
 1392SOL     OW 4356   2.732   1.132   1.766
 1392SOL    HW1 4357   2.682   1.144   1.851
 1392SOL    HW2 4358   2.761   1.036   1.759
 1393SOL     OW 4359   1.979   3.854   4.611
 1393SOL    HW1 4360   2.052   3.797   4.647
 1393SOL    HW2 4361   2.019   3.937   4.572
 1394SOL     OW 4362   1.317   1.213   2.438
 1394SOL    HW1 4363   1.256   1.273   2.489
 1394SOL    HW2 4364   1.335   1.130   2.492
 1395SOL     OW 4365   1.772   2.925   0.229
 1395SOL    HW1 4366   1.820   2.878   0.155
 1395SOL    HW2 4367   1.806   3.019   0.236
 1396SOL     OW 4368   1.335   3.068   2.805
 1396SOL    HW1 4369   1.375   3.096   2.718
 1396SOL    HW2 4370   1.408   3.045   2.870
 1397SOL     OW 4371   0.619   2.795   0.588
 1397SOL    HW1 4372   0.621   2.695   0.589
 1397SOL    HW2 4373   0.645   2.827   0.497
 1398SOL     OW 4374   2.732   1.396   4.487
 1398SOL    HW1 4375   2.666   1.335   4.443
 1398SOL    HW2 4376   2.698   1.422   4.577
 1399SOL     OW 4377   0.839   1.312   1.319
 1399SOL    HW1 4378   0.910   1.242   1.324
 1399SOL    HW2 4379   0.749   1.268   1.324
 1400SOL     OW 4380   3.952   2.600   3.661
 1400SOL    HW1 4381   4.004   2.546   3.595
 1400SOL    HW2 4382   3.854   2.584   3.648
 1401SOL     OW 4383   2.357   4.460   3.373
 1401SOL    HW1 4384   2.286   4.515   3.417
 1401SOL    HW2 4385   2.321   4.369   3.354
 1402SOL     OW 4386   2.875   2.366   1.083
 1402SOL    HW1 4387   2.776   2.350   1.078
 1402SOL    HW2 4388   2.894   2.462   1.065
 1403SOL     OW 4389   3.692   2.708   4.850
 1403SOL    HW1 4390   3.725   2.781   4.791
 1403SOL    HW2 4391   3.596   2.688   4.827
 1404SOL     OW 4392   4.087   4.101   1.751
 1404SOL    HW1 4393   4.108   4.005   1.771
 1404SOL    HW2 4394   4.089   4.152   1.837
 1405SOL     OW 4395   4.392   0.249   2.427
 1405SOL    HW1 4396   4.488   0.273   2.413
 1405SOL    HW2 4397   4.382   0.150   2.418
 1406SOL     OW 4398   3.530   4.825   1.966
 1406SOL    HW1 4399   3.530   4.765   2.046
 1406SOL    HW2 4400   3.596   4.791   1.899
 1407SOL     OW 4401   3.160   4.685   3.557
 1407SOL    HW1 4402   3.159   4.614   3.486
 1407SOL    HW2 4403   3.221   4.657   3.631
 1408SOL     OW 4404   1.598   1.353   0.591
 1408SOL    HW1 4405   1.553   1.278   0.544
 1408SOL    HW2 4406   1.651   1.407   0.525
 1409SOL     OW 4407   3.920   1.678   0.393
 1409SOL    HW1 4408   3.925   1.774   0.422
 1409SOL    HW2 4409   3.840   1.635   0.435
 1410SOL     OW 4410   4.735   3.144   1.727
 1410SOL    HW1 4411   4.695   3.214   1.668
 1410SOL    HW2 4412   4.713   3.054   1.690
 1411SOL     OW 4413   2.826   4.798   3.714
 1411SOL    HW1 4414   2.733   4.829   3.730
 1411SOL    HW2 4415   2.843   4.792   3.615
 1412SOL     OW 4416   2.318   0.367   4.376
 1412SOL    HW1 4417   2.406   0.395   4.339
 1412SOL    HW2 4418   2.326   0.276   4.416
 1413SOL     OW 4419   2.902   2.522   1.363
 1413SOL    HW1 4420   2.865   2.538   1.455
 1413SOL    HW2 4421   2.843   2.567   1.296
 1414SOL     OW 4422   0.339   1.256   2.533
 1414SOL    HW1 4423   0.416   1.307   2.569
 1414SOL    HW2 4424   0.339   1.164   2.572
 1415SOL     OW 4425   3.180   3.602   3.539
 1415SOL    HW1 4426   3.219   3.653   3.462
 1415SOL    HW2 4427   3.124   3.664   3.594
 1416SOL     OW 4428   1.131   1.978   0.809
 1416SOL    HW1 4429   1.230   1.986   0.792
 1416SOL    HW2 4430   1.091   1.917   0.741
 1417SOL     OW 4431   2.186   4.447   1.950
 1417SOL    HW1 4432   2.092   4.412   1.953
 1417SOL    HW2 4433   2.202   4.505   2.029
 1418SOL     OW 4434   3.207   1.722   3.940
 1418SOL    HW1 4435   3.208   1.647   3.874
 1418SOL    HW2 4436   3.295   1.771   3.935
 1419SOL     OW 4437   1.737   4.173   1.714
 1419SOL    HW1 4438   1.750   4.075   1.695
 1419SOL    HW2 4439   1.818   4.209   1.760
 1420SOL     OW 4440   3.479   4.005   1.797
 1420SOL    HW1 4441   3.476   4.085   1.857
 1420SOL    HW2 4442   3.428   4.024   1.713
 1421SOL     OW 4443   3.179   1.387   1.494
 1421SOL    HW1 4444   3.133   1.299   1.489
 1421SOL    HW2 4445   3.278   1.373   1.497
 1422SOL     OW 4446   4.257   4.059   2.155
 1422SOL    HW1 4447   4.327   4.079   2.087
 1422SOL    HW2 4448   4.217   3.969   2.136
 1423SOL     OW 4449   2.225   2.124   4.608
 1423SOL    HW1 4450   2.179   2.211   4.625
 1423SOL    HW2 4451   2.322   2.142   4.589
 1424SOL     OW 4452   0.955   2.495   4.784
 1424SOL    HW1 4453   0.924   2.428   4.851
 1424SOL    HW2 4454   1.055   2.498   4.785
 1425SOL     OW 4455   3.032   1.431   2.128
 1425SOL    HW1 4456   3.036   1.356   2.062
 1425SOL    HW2 4457   3.101   1.499   2.106
 1426SOL     OW 4458   3.519   0.657   2.148
 1426SOL    HW1 4459   3.492   0.611   2.233
 1426SOL    HW2 4460   3.438   0.675   2.093
 1427SOL     OW 4461   4.019   0.965   4.802
 1427SOL    HW1 4462   3.958   1.043   4.793
 1427SOL    HW2 4463   4.114   0.997   4.805
 1428SOL     OW 4464   4.321   3.060   1.105
 1428SOL    HW1 4465   4.267   3.018   1.178
 1428SOL    HW2 4466   4.418   3.040   1.120
 1429SOL     OW 4467   3.066   4.748   1.919
 1429SOL    HW1 4468   3.104   4.761   1.827
 1429SOL    HW2 4469   2.981   4.697   1.913
 1430SOL     OW 4470   3.094   3.340   4.602
 1430SOL    HW1 4471   3.147   3.419   4.635
 1430SOL    HW2 4472   3.090   3.343   4.502
 1431SOL     OW 4473   1.450   4.426   1.027
 1431SOL    HW1 4474   1.537   4.391   1.060
 1431SOL    HW2 4475   1.455   4.438   0.928
 1432SOL     OW 4476   1.683   0.865   3.870
 1432SOL    HW1 4477   1.736   0.794   3.916
 1432SOL    HW2 4478   1.658   0.832   3.779
 1433SOL     OW 4479   3.610   4.149   0.630
 1433SOL    HW1 4480   3.580   4.203   0.551
 1433SOL    HW2 4481   3.608   4.052   0.605
 1434SOL     OW 4482   2.316   2.407   0.677
 1434SOL    HW1 4483   2.257   2.337   0.715
 1434SOL    HW2 4484   2.260   2.478   0.635
 1435SOL     OW 4485   2.447   1.494   3.375
 1435SOL    HW1 4486   2.418   1.405   3.412
 1435SOL    HW2 4487   2.389   1.566   3.413
 1436SOL     OW 4488   3.238   3.018   2.392
 1436SOL    HW1 4489   3.299   3.035   2.314
 1436SOL    HW2 4490   3.144   3.013   2.359
 1437SOL     OW 4491   1.318   0.706   4.434
 1437SOL    HW1 4492   1.289   0.614   4.403
 1437SOL    HW2 4493   1.409   0.726   4.396
 1438SOL     OW 4494   3.311   2.348   4.575
 1438SOL    HW1 4495   3.398   2.387   4.605
 1438SOL    HW2 4496   3.238   2.416   4.589
 1439SOL     OW 4497   1.446   4.598   1.499
 1439SOL    HW1 4498   1.382   4.675   1.512
 1439SOL    HW2 4499   1.537   4.626   1.529
 1440SOL     OW 4500   0.664   1.643   4.567
 1440SOL    HW1 4501   0.764   1.645   4.574
 1440SOL    HW2 4502   0.634   1.549   4.549
 1441SOL     OW 4503   0.949   3.433   3.518
 1441SOL    HW1 4504   0.932   3.411   3.422
 1441SOL    HW2 4505   0.964   3.347   3.568
 1442SOL     OW 4506   0.379   2.456   0.925
 1442SOL    HW1 4507   0.334   2.518   0.989
 1442SOL    HW2 4508   0.434   2.508   0.861
 1443SOL     OW 4509   4.620   0.967   2.556
 1443SOL    HW1 4510   4.714   0.933   2.559
 1443SOL    HW2 4511   4.557   0.889   2.566
 1444SOL     OW 4512   2.315   2.708   0.221
 1444SOL    HW1 4513   2.361   2.647   0.157
 1444SOL    HW2 4514   2.378   2.731   0.295
 1445SOL     OW 4515   0.267   3.657   2.133
 1445SOL    HW1 4516   0.188   3.603   2.164
 1445SOL    HW2 4517   0.245   3.755   2.143
 1446SOL     OW 4518   4.547   2.171   1.809
 1446SOL    HW1 4519   4.520   2.182   1.905
 1446SOL    HW2 4520   4.641   2.203   1.798
 1447SOL     OW 4521   1.707   3.628   1.065
 1447SOL    HW1 4522   1.616   3.594   1.089
 1447SOL    HW2 4523   1.770   3.551   1.059
 1448SOL     OW 4524   1.104   3.492   0.363
 1448SOL    HW1 4525   1.196   3.526   0.383
 1448SOL    HW2 4526   1.036   3.555   0.399
 1449SOL     OW 4527   2.389   0.912   0.861
 1449SOL    HW1 4528   2.302   0.957   0.843
 1449SOL    HW2 4529   2.372   0.815   0.880
 1450SOL     OW 4530   4.524   2.615   0.300
 1450SOL    HW1 4531   4.557   2.541   0.242
 1450SOL    HW2 4532   4.552   2.703   0.262
 1451SOL     OW 4533   1.101   0.409   1.512
 1451SOL    HW1 4534   1.064   0.417   1.605
 1451SOL    HW2 4535   1.026   0.399   1.447
 1452SOL     OW 4536   4.057   0.483   3.458
 1452SOL    HW1 4537   4.090   0.575   3.476
 1452SOL    HW2 4538   3.964   0.488   3.422
 1453SOL     OW 4539   0.550   1.529   0.163
 1453SOL    HW1 4540   0.597   1.443   0.183
 1453SOL    HW2 4541   0.451   1.514   0.168
 1454SOL     OW 4542   1.895   3.704   3.950
 1454SOL    HW1 4543   1.899   3.682   4.048
 1454SOL    HW2 4544   1.956   3.642   3.900
 1455SOL     OW 4545   2.044   3.248   3.098
 1455SOL    HW1 4546   2.024   3.151   3.088
 1455SOL    HW2 4547   1.970   3.302   3.058
 1456SOL     OW 4548   4.401   2.443   2.706
 1456SOL    HW1 4549   4.345   2.361   2.720
 1456SOL    HW2 4550   4.489   2.431   2.751
 1457SOL     OW 4551   3.101   2.983   1.348
 1457SOL    HW1 4552   3.006   2.970   1.318
 1457SOL    HW2 4553   3.102   3.040   1.430
 1458SOL     OW 4554   3.005   0.631   4.124
 1458SOL    HW1 4555   3.058   0.704   4.080
 1458SOL    HW2 4556   3.064   0.582   4.189
 1459SOL     OW 4557   2.613   2.600   4.286
 1459SOL    HW1 4558   2.548   2.531   4.253
 1459SOL    HW2 4559   2.649   2.651   4.207
 1460SOL     OW 4560   1.766   3.163   1.919
 1460SOL    HW1 4561   1.802   3.240   1.972
 1460SOL    HW2 4562   1.679   3.189   1.877
 1461SOL     OW 4563   2.302   4.044   4.851
 1461SOL    HW1 4564   2.261   3.978   4.787
 1461SOL    HW2 4565   2.370   4.099   4.803
 1462SOL     OW 4566   2.984   2.624   3.617
 1462SOL    HW1 4567   3.047   2.677   3.560
 1462SOL    HW2 4568   2.936   2.686   3.679
 1463SOL     OW 4569   1.709   1.451   3.403
 1463SOL    HW1 4570   1.705   1.391   3.323
 1463SOL    HW2 4571   1.617   1.486   3.423
 1464SOL     OW 4572   4.481   0.254   2.853
 1464SOL    HW1 4573   4.496   0.170   2.800
 1464SOL    HW2 4574   4.563   0.275   2.905
 1465SOL     OW 4575   1.108   2.983   3.215
 1465SOL    HW1 4576   1.094   2.963   3.312
 1465SOL    HW2 4577   1.055   2.919   3.160
 1466SOL     OW 4578   4.167   2.333   1.711
 1466SOL    HW1 4579   4.130   2.240   1.706
 1466SOL    HW2 4580   4.091   2.398   1.719
 1467SOL     OW 4581   4.728   0.917   0.851
 1467SOL    HW1 4582   4.806   0.863   0.882
 1467SOL    HW2 4583   4.657   0.856   0.815
 1468SOL     OW 4584   4.678   4.457   1.510
 1468SOL    HW1 4585   4.700   4.369   1.469
 1468SOL    HW2 4586   4.762   4.511   1.519
 1469SOL     OW 4587   4.800   2.109   0.927
 1469SOL    HW1 4588   4.840   2.186   0.878
 1469SOL    HW2 4589   4.817   2.120   1.025
 1470SOL     OW 4590   0.954   1.650   2.739
 1470SOL    HW1 4591   0.880   1.689   2.683
 1470SOL    HW2 4592   0.987   1.719   2.803
 1471SOL     OW 4593   2.426   3.827   3.254
 1471SOL    HW1 4594   2.412   3.880   3.337
 1471SOL    HW2 4595   2.407   3.731   3.273
 1472SOL     OW 4596   3.724   0.453   4.757
 1472SOL    HW1 4597   3.819   0.442   4.789
 1472SOL    HW2 4598   3.713   0.544   4.718
 1473SOL     OW 4599   1.746   2.589   0.962
 1473SOL    HW1 4600   1.800   2.524   0.909
 1473SOL    HW2 4601   1.675   2.539   1.011
 1474SOL     OW 4602   4.175   1.846   1.272
 1474SOL    HW1 4603   4.227   1.762   1.279
 1474SOL    HW2 4604   4.078   1.823   1.255
 1475SOL     OW 4605   1.238   0.681   3.174
 1475SOL    HW1 4606   1.148   0.724   3.171
 1475SOL    HW2 4607   1.227   0.583   3.191
 1476SOL     OW 4608   0.641   3.472   1.710
 1476SOL    HW1 4609   0.559   3.443   1.761
 1476SOL    HW2 4610   0.619   3.553   1.656
 1477SOL     OW 4611   4.221   0.697   2.554
 1477SOL    HW1 4612   4.247   0.657   2.466
 1477SOL    HW2 4613   4.284   0.773   2.575
 1478SOL     OW 4614   0.351   0.534   3.522
 1478SOL    HW1 4615   0.433   0.509   3.469
 1478SOL    HW2 4616   0.329   0.458   3.584
 1479SOL     OW 4617   0.310   4.759   4.209
 1479SOL    HW1 4618   0.385   4.704   4.245
 1479SOL    HW2 4619   0.344   4.822   4.139
 1480SOL     OW 4620   4.762   0.751   3.849
 1480SOL    HW1 4621   4.842   0.701   3.881
 1480SOL    HW2 4622   4.681   0.720   3.899
 1481SOL     OW 4623   4.328   3.351   3.302
 1481SOL    HW1 4624   4.273   3.271   3.281
 1481SOL    HW2 4625   4.423   3.323   3.319
 1482SOL     OW 4626   1.899   2.392   2.410
 1482SOL    HW1 4627   1.809   2.350   2.397
 1482SOL    HW2 4628   1.898   2.484   2.371
 1483SOL     OW 4629   1.111   1.376   1.439
 1483SOL    HW1 4630   1.093   1.278   1.444
 1483SOL    HW2 4631   1.026   1.423   1.416
 1484SOL     OW 4632   1.110   3.616   1.653
 1484SOL    HW1 4633   1.196   3.667   1.645
 1484SOL    HW2 4634   1.122   3.526   1.611
 1485SOL     OW 4635   2.114   4.671   1.832
 1485SOL    HW1 4636   2.203   4.692   1.871
 1485SOL    HW2 4637   2.098   4.730   1.752
 1486SOL     OW 4638   4.202   4.793   1.656
 1486SOL    HW1 4639   4.296   4.811   1.686
 1486SOL    HW2 4640   4.198   4.700   1.618
 1487SOL     OW 4641   3.913   1.684   1.989
 1487SOL    HW1 4642   3.886   1.768   2.035
 1487SOL    HW2 4643   4.010   1.666   2.009
 1488SOL     OW 4644   1.201   0.541   0.239
 1488SOL    HW1 4645   1.270   0.474   0.267
 1488SOL    HW2 4646   1.247   0.618   0.193
 1489SOL     OW 4647   3.308   3.307   4.487
 1489SOL    HW1 4648   3.338   3.217   4.520
 1489SOL    HW2 4649   3.388   3.361   4.461
 1490SOL     OW 4650   2.388   4.332   3.026
 1490SOL    HW1 4651   2.406   4.430   3.034
 1490SOL    HW2 4652   2.469   4.287   2.988
 1491SOL     OW 4653   0.753   0.561   2.183
 1491SOL    HW1 4654   0.685   0.499   2.143
 1491SOL    HW2 4655   0.809   0.600   2.110
 1492SOL     OW 4656   3.306   3.509   1.362
 1492SOL    HW1 4657   3.293   3.469   1.271
 1492SOL    HW2 4658   3.373   3.454   1.412
 1493SOL     OW 4659   2.110   3.477   2.731
 1493SOL    HW1 4660   2.107   3.538   2.652
 1493SOL    HW2 4661   2.016   3.455   2.759
 1494SOL     OW 4662   3.948   2.887   0.893
 1494SOL    HW1 4663   3.988   2.842   0.813
 1494SOL    HW2 4664   4.003   2.865   0.973
 1495SOL     OW 4665   0.369   1.686   4.292
 1495SOL    HW1 4666   0.281   1.639   4.288
 1495SOL    HW2 4667   0.443   1.618   4.298
 1496SOL     OW 4668   2.731   4.408   1.701
 1496SOL    HW1 4669   2.771   4.489   1.743
 1496SOL    HW2 4670   2.742   4.330   1.764
 1497SOL     OW 4671   4.687   0.600   0.552
 1497SOL    HW1 4672   4.734   0.637   0.472
 1497SOL    HW2 4673   4.602   0.651   0.566
 1498SOL     OW 4674   0.438   3.009   3.679
 1498SOL    HW1 4675   0.517   3.013   3.739
 1498SOL    HW2 4676   0.468   3.005   3.583
 1499SOL     OW 4677   2.570   2.073   3.073
 1499SOL    HW1 4678   2.570   1.973   3.069
 1499SOL    HW2 4679   2.663   2.106   3.087
 1500SOL     OW 4680   4.780   1.664   1.843
 1500SOL    HW1 4681   4.838   1.712   1.778
 1500SOL    HW2 4682   4.701   1.722   1.866
 1501SOL     OW 4683   4.661   1.069   3.937
 1501SOL    HW1 4684   4.643   1.167   3.935
 1501SOL    HW2 4685   4.580   1.020   3.904
 1502SOL     OW 4686   0.734   2.895   3.117
 1502SOL    HW1 4687   0.805   2.828   3.096
 1502SOL    HW2 4688   0.708   2.886   3.213
 1503SOL     OW 4689   1.262   0.889   1.024
 1503SOL    HW1 4690   1.302   0.800   1.046
 1503SOL    HW2 4691   1.327   0.942   0.970
 1504SOL     OW 4692   4.387   3.776   1.783
 1504SOL    HW1 4693   4.357   3.682   1.768
 1504SOL    HW2 4694   4.485   3.782   1.766
 1505SOL     OW 4695   4.633   3.033   1.250
 1505SOL    HW1 4696   4.569   3.018   1.324
 1505SOL    HW2 4697   4.678   2.947   1.227
 1506SOL     OW 4698   2.995   1.565   1.182
 1506SOL    HW1 4699   2.904   1.605   1.178
 1506SOL    HW2 4700   3.052   1.620   1.243
 1507SOL     OW 4701   4.541   0.438   3.981
 1507SOL    HW1 4702   4.576   0.482   4.064
 1507SOL    HW2 4703   4.509   0.509   3.918
 1508SOL     OW 4704   2.578   2.626   4.700
 1508SOL    HW1 4705   2.602   2.654   4.607
 1508SOL    HW2 4706   2.544   2.706   4.750
 1509SOL     OW 4707   0.576   3.915   4.379
 1509SOL    HW1 4708   0.503   3.850   4.356
 1509SOL    HW2 4709   0.581   3.923   4.479
 1510SOL     OW 4710   2.338   2.628   3.973
 1510SOL    HW1 4711   2.352   2.622   3.874
 1510SOL    HW2 4712   2.280   2.552   4.002
   5.00000   5.00000   5.00000
