GROningen MAchine for Chemical Simulation
    9
    1ETH      C    1   0.100  -0.010   0.001
    1ETH     C1    2   0.050   0.128   0.041
    1ETH      O    3   0.096   0.225  -0.051
    1ETH      H    4   0.065  -0.035  -0.100
    1ETH     H1    5   0.064  -0.086   0.071
    1ETH     H2    6   0.209  -0.012  -0.001
    1ETH     H3    7  -0.059   0.130   0.041
    1ETH     H4    8   0.085   0.154   0.141
    1ETH     H5    9   0.194   0.223  -0.049
   5.37200   6.22200   4.82400
