; Minimal GAFF/SPC/E force-field header for this system.
; Generated by scripts/task3/prepare_task3_inputs.py.
; Keep this file included before any molecule .itp file.

[ defaults ]
; nbfunc        comb-rule       gen-pairs       fudgeLJ fudgeQQ
1               2               yes             0.5     0.8333333333

[ atomtypes ]
; name  bond_type     mass     charge   ptype   sigma         epsilon
hc      hc         0.00000  0.00000   A      2.60018e-01   8.70272e-02
c3      c3         0.00000  0.00000   A      3.39771e-01   4.51035e-01
h2      h2         0.00000  0.00000   A      2.24382e-01   8.70272e-02
h1      h1         0.00000  0.00000   A      2.42200e-01   8.70272e-02
oh      oh         0.00000  0.00000   A      3.24287e-01   3.89112e-01
ho      ho         0.00000  0.00000   A      5.37925e-02   1.96648e-02
os      os         0.00000  0.00000   A      3.15610e-01   3.03758e-01
OW      OW         15.9994      0.0   A        3.166e-01     6.506e-01
HW      HW          1.0080      0.0   A        0.000e+00     0.000e+00
