; SPC/E water molecule topology for Task 3.
; Atom types are defined in solvent/forcefield_gaff_spce.itp.

[ moleculetype ]
; name            nrexcl
SOL               2

[ atoms ]
; nr  type  resnr  resname  atom  cgnr  charge      mass
  1   OW    1      SOL      OW    1    -0.8476   15.9994
  2   HW    1      SOL      HW1   1     0.4238    1.0080
  3   HW    1      SOL      HW2   1     0.4238    1.0080

[ settles ]
; i  funct  doh     dhh
  1  1      0.1000  0.1630

[ exclusions ]
; i  excluded atoms
  1  2  3
  2  1  3
  3  1  2
