CLS single chain in water/ethanol mixed solvent
 7412
    1CLSA    H1    1   3.197   4.167   0.168 -0.4229  3.3765  1.3272
    1CLSA    C1    2   3.171   4.124   0.266 -0.4316 -0.2696 -0.1198
    1CLSA    C2    3   3.014   4.050   0.484  0.2880  0.5319 -0.1076
    1CLSA    C3    4   3.076   4.005   0.254  0.1449 -0.4032 -0.4906
    1CLSA    C4    5   3.121   4.242   0.356  0.1774  0.7574 -0.3649
    1CLSA    C5    6   3.099   4.183   0.502  0.3064  0.4762  0.3968
    1CLSA    H2    7   2.917   4.075   0.438  0.3399 -0.4223 -0.7733
    1CLSA    H3    8   3.263   4.080   0.305  0.2572  1.9870  0.9597
    1CLSA    H4    9   3.025   4.280   0.318 -0.7497 -0.8582  0.2778
    1CLSA    H5   10   3.197   4.160   0.545 -0.5639  0.6166  2.5875
    1CLSA    H6   11   2.978   4.038   0.217  0.9622  1.6551 -0.9607
    1CLSA    O1   12   3.225   4.327   0.356 -0.4171 -0.2761  0.1826
    1CLSA    H7   13   3.253   4.368   0.440  1.5493  0.7209 -0.8871
    1CLSA    O2   14   3.040   4.283   0.588  0.1292 -0.9059  0.0387
    1CLSA    H8   15   3.112   4.300   0.651  0.5156  0.0919 -0.6467
    1CLSA    O3   16   3.076   3.957   0.392 -0.2653 -0.1169 -0.1332
    1CLSA    C6   17   3.135   3.895   0.169 -0.5386 -0.0223  0.0473
    1CLSA    H9   18   3.058   3.818   0.158 -2.1739  1.7291 -1.6386
    1CLSA   H10   19   3.146   3.934   0.067  0.1216 -2.2617 -0.7941
    1CLSA    O4   20   3.263   3.837   0.222 -0.2772 -0.0156  0.3776
    1CLSA   H11   21   3.263   3.823   0.319  2.1063 -0.4114  0.3750
    1CLSA    O5   22   2.989   3.977   0.603 -0.0394  0.1800 -0.0759
    2CLSB    C7   23   2.872   3.887   0.604 -0.9861 -0.9428 -1.0961
    2CLSB    C8   24   2.806   3.660   0.678  0.0240  0.4081 -0.4762
    2CLSB    C9   25   2.927   3.757   0.661 -0.1048  0.0978  0.0932
    2CLSB   C10   26   2.757   3.946   0.685  0.2648 -0.4369 -0.4569
    2CLSB   C11   27   2.684   3.718   0.754 -0.6445 -0.1765 -0.4731
    2CLSB   H12   28   3.000   3.709   0.593  0.6073  0.8644  0.2958
    2CLSB   H13   29   2.767   3.618   0.585 -0.3545 -0.1216 -0.0889
    2CLSB   H14   30   2.790   3.970   0.786 -0.2159  1.9777 -0.8254
    2CLSB   H15   31   2.714   3.732   0.859 -0.0821 -2.3397 -0.2962
    2CLSB   H16   32   2.839   3.875   0.500 -1.4535  0.9234 -1.1891
    2CLSB    O6   33   2.637   3.849   0.690  0.1527 -0.5137 -0.4655
    2CLSB   C12   34   2.709   4.086   0.630  0.0309 -0.2932  0.2031
    2CLSB   H17   35   2.635   4.123   0.703 -1.1003  0.0446 -1.0642
    2CLSB   H18   36   2.787   4.163   0.619 -0.0803 -0.2514 -0.3579
    2CLSB    O7   37   2.639   4.057   0.511  0.2174  0.0650 -0.3021
    2CLSB   H19   38   2.547   4.063   0.544 -0.1305 -4.2938  0.0190
    2CLSB    O8   39   2.855   3.550   0.757  0.5666 -0.2742  0.4100
    2CLSB   H20   40   2.942   3.579   0.788  0.1298  0.0261  1.3824
    2CLSB    O9   41   2.993   3.779   0.790 -0.0815  0.2100  0.3373
    2CLSB   H21   42   3.038   3.862   0.770 -1.5138  0.7009 -1.1128
    2CLSB   O10   43   2.577   3.619   0.742 -0.0314 -0.2017  0.9548
    3CLSA   C13   44   2.472   3.618   0.841  0.5218 -0.7423 -0.0957
    3CLSA   C14   45   2.240   3.498   0.963  0.4288  0.3277 -0.2629
    3CLSA   C15   46   2.485   3.504   0.937  0.1281  0.0661 -0.3370
    3CLSA   C16   47   2.329   3.623   0.766  0.3493 -0.5664 -0.0707
    3CLSA   C17   48   2.220   3.620   0.877  0.5467 -0.4410  0.3797
    3CLSA   H22   49   2.236   3.412   0.895 -0.6260  0.7821 -0.8047
    3CLSA   H23   50   2.476   3.715   0.894  0.7928 -0.5879 -0.3958
    3CLSA   H24   51   2.315   3.534   0.703 -0.4256 -1.2259  1.0053
    3CLSA   H25   52   2.237   3.708   0.940  0.2523 -0.2254  0.1641
    3CLSA   H26   53   2.491   3.406   0.887  0.7068 -0.0391 -0.0714
    3CLSA   O11   54   2.302   3.747   0.695 -0.1222 -0.0577  0.4435
    3CLSA   H27   55   2.208   3.770   0.706 -0.4247  0.5048 -2.4274
    3CLSA   O12   56   2.088   3.629   0.819 -0.1464 -0.1221 -0.1546
    3CLSA   H28   57   2.035   3.687   0.877  1.5170  2.6877 -1.2272
    3CLSA   O13   58   2.370   3.505   1.029  0.2545 -0.5828 -0.4585
    3CLSA   C18   59   2.620   3.503   1.007  0.0882 -0.0224  0.2380
    3CLSA   H29   60   2.648   3.401   1.038  1.0264 -0.2155 -1.1866
    3CLSA   H30   61   2.698   3.527   0.934  0.9250 -0.1669  1.0631
    3CLSA   O14   62   2.609   3.600   1.111 -0.5581 -0.7061 -0.0004
    3CLSA   H31   63   2.614   3.548   1.194  0.6383 -0.2082  0.2685
    3CLSA   O15   64   2.142   3.500   1.063 -0.1702 -0.5013 -0.2862
    4CLSB   C19   65   2.137   3.376   1.133  0.5614 -0.3756 -0.2707
    4CLSB   C20   66   2.164   3.274   1.355 -0.2738 -0.5634 -0.0788
    4CLSB   C21   67   2.189   3.403   1.275 -0.8025  0.0818 -0.1795
    4CLSB   C22   68   1.977   3.328   1.131 -1.2878 -0.7327  0.0361
    4CLSB   C23   69   2.021   3.235   1.353 -0.5085 -0.6834 -0.4200
    4CLSB   H32   70   2.296   3.427   1.274  0.3727 -4.0241  2.2811
    4CLSB   H33   71   2.226   3.195   1.312 -1.1630 -2.0512  1.2440
    4CLSB   H34   72   1.918   3.413   1.169 -3.4221 -1.1872 -1.9863
    4CLSB   H35   73   1.974   3.326   1.391  1.9046 -0.3020  2.0074
    4CLSB   H36   74   2.195   3.291   1.095  2.3406  0.6389  0.0376
    4CLSB   O16   75   1.970   3.214   1.217 -0.2177  0.0008 -0.4393
    4CLSB   C24   76   1.924   3.300   0.988 -0.7649  0.4758  0.6184
    4CLSB   H37   77   1.957   3.380   0.921  2.5249 -1.1173  0.1031
    4CLSB   H38   78   1.968   3.210   0.942  1.5536  1.9468 -0.1941
    4CLSB   O17   79   1.792   3.273   0.996  0.2694 -0.2504  0.5506
    4CLSB   H39   80   1.763   3.225   0.916 -0.1013  0.6293  0.1406
    4CLSB   O18   81   2.215   3.301   1.487  0.2174 -0.0886 -0.1416
    4CLSB   H40   82   2.174   3.387   1.508  1.5169  0.6563 -0.5667
    4CLSB   O19   83   2.114   3.513   1.339  0.0573  0.5207  0.2613
    4CLSB   H41   84   2.116   3.585   1.274  0.4121 -1.3115 -1.8609
    4CLSB   O20   85   1.993   3.119   1.433  0.0006  0.0058 -0.5597
    5CLSA   C25   86   1.882   3.126   1.519  0.5195 -0.1893 -0.7638
    5CLSA   C26   87   1.618   2.992   1.613  0.3812 -0.0860 -0.4258
    5CLSA   C27   88   1.870   2.999   1.607  0.5536  0.8143  0.5117
    5CLSA   C28   89   1.745   3.145   1.439 -0.6944  0.0268  0.2214
    5CLSA   C29   90   1.618   3.117   1.522 -0.1257  0.3733 -0.4919
    5CLSA   H42   91   1.598   2.899   1.559 -0.4021 -1.5687  2.2163
    5CLSA   H43   92   1.905   3.203   1.594  0.0876 -0.6179 -0.1794
    5CLSA   H44   93   1.747   3.064   1.365 -1.3613 -0.0807  0.3102
    5CLSA   H45   94   1.603   3.200   1.592  0.9296  0.9245 -0.8911
    5CLSA   H46   95   1.880   2.910   1.543  3.0293  0.4958  1.2658
    5CLSA   O21   96   1.729   3.270   1.372 -0.2002  0.1188 -0.2968
    5CLSA   H47   97   1.661   3.265   1.302  0.1931  0.1253 -0.6783
    5CLSA   O22   98   1.508   3.123   1.438  0.2222 -0.0920  0.5741
    5CLSA   H48   99   1.527   3.078   1.354 -1.8129 -1.7528  0.9045
    5CLSA   O23  100   1.743   3.003   1.682  0.0049  1.2638 -0.4709
    5CLSA   C30  101   1.982   2.983   1.705  0.6888  0.5495 -0.0495
    5CLSA   H49  102   2.075   3.020   1.660  0.6343  1.5662  0.6311
    5CLSA   H50  103   1.969   3.058   1.784 -1.7738  2.7500 -2.3303
    5CLSA   O24  104   1.972   2.856   1.768  0.0559  0.1661  0.4067
    5CLSA   H51  105   1.889   2.871   1.817 -1.4128 -2.8989 -0.9135
    5CLSA   O25  106   1.513   3.006   1.709  0.0356 -0.5661 -0.5504
    6CLSB   C31  107   1.476   2.893   1.785 -0.0152 -0.7215  0.2077
    6CLSB   C32  108   1.481   2.799   2.009  0.9431  0.0222  0.1589
    6CLSB   C33  109   1.528   2.910   1.925 -0.0639 -0.0773 -0.2243
    6CLSB   C34  110   1.320   2.872   1.781  0.1759 -0.9279 -0.1193
    6CLSB   C35  111   1.326   2.780   2.003 -0.0778  0.3266  0.2612
    6CLSB   H52  112   1.637   2.902   1.921  0.0312  1.3282 -1.4338
    6CLSB   H53  113   1.528   2.710   1.966 -0.0941 -0.4495 -0.0393
    6CLSB   H54  114   1.270   2.965   1.809  0.1611 -0.2350 -2.3070
    6CLSB   H55  115   1.275   2.872   2.034 -1.0744 -0.0733 -0.1466
    6CLSB   H56  116   1.527   2.804   1.746 -1.1632 -1.0731 -0.5227
    6CLSB   O26  117   1.282   2.761   1.870 -0.6515 -0.5890 -0.3782
    6CLSB   C36  118   1.271   2.854   1.634 -0.1292 -0.3089  0.0006
    6CLSB   H57  119   1.169   2.816   1.635 -0.8467  1.5298  0.4194
    6CLSB   H58  120   1.268   2.949   1.578  1.3912  0.0648  0.4975
    6CLSB   O27  121   1.357   2.762   1.574 -0.2359  0.1163  0.4136
    6CLSB   H59  122   1.349   2.786   1.480 -0.5863  1.2723  0.7172
    6CLSB   O28  123   1.531   2.828   2.138 -0.0918 -0.0049  0.2816
    6CLSB   H60  124   1.536   2.924   2.126  3.3263 -0.1708 -0.6612
    6CLSB   O29  125   1.492   3.039   1.969 -0.2078 -0.1637  0.2815
    6CLSB   H61  126   1.515   3.090   1.890 -0.7925 -2.3404 -1.3997
    6CLSB   O30  127   1.289   2.661   2.076 -0.3872 -0.9406 -0.3327
    7CLSA   C37  128   1.149   2.643   2.114 -0.2487 -0.0247  0.6859
    7CLSA   C38  129   0.980   2.501   2.317 -0.6478 -0.6178 -0.3396
    7CLSA   C39  130   1.149   2.676   2.267  0.5238 -0.2027 -0.2553
    7CLSA   C40  131   1.110   2.492   2.098 -0.1768  0.0854 -0.0269
    7CLSA   C41  132   0.971   2.459   2.167  0.1082  0.1046  0.2460
    7CLSA   H62  133   1.057   2.440   2.365  0.8811  0.2964 -1.5264
    7CLSA   H63  134   1.086   2.716   2.061  1.4438  0.7917 -0.3032
    7CLSA   H64  135   1.191   2.436   2.145 -0.0944  0.5968  0.4514
    7CLSA   H65  136   0.893   2.521   2.121  0.5390  1.4268  1.2277
    7CLSA   H66  137   1.225   2.616   2.318 -1.0195 -2.3507 -0.3617
    7CLSA   O31  138   1.096   2.455   1.958 -0.4960 -0.5501  0.0426
    7CLSA   H67  139   1.025   2.389   1.949 -0.3226 -0.7646  0.2110
    7CLSA   O32  140   0.931   2.324   2.142  0.0916 -0.0476 -0.4158
    7CLSA   H68  141   0.839   2.323   2.112 -0.2212  0.8379  0.4368
    7CLSA   O33  142   1.015   2.643   2.321 -0.1367 -0.1864 -0.4529
    7CLSA   C42  143   1.167   2.832   2.292  0.2438  0.5527 -0.0166
    7CLSA   H69  144   1.260   2.856   2.239  0.5440 -1.4847 -0.4890
    7CLSA   H70  145   1.083   2.887   2.248  0.0842 -0.5180 -1.0688
    7CLSA   O34  146   1.183   2.864   2.428 -0.0854  0.3306 -0.2407
    7CLSA   H71  147   1.275   2.846   2.454 -0.0772 -1.5513 -1.3737
    7CLSA   O35  148   0.857   2.476   2.388 -1.1145 -0.3392  0.3210
    8CLSB   C43  149   0.843   2.359   2.471 -0.4667  0.3690  0.6770
    8CLSB   C44  150   0.913   2.230   2.667 -0.4301 -0.2935  0.6611
    8CLSB   C45  151   0.939   2.363   2.592 -0.1879  0.4390  0.1311
    8CLSB   C46  152   0.686   2.345   2.509  0.2096 -0.0008  0.3455
    8CLSB   C47  153   0.762   2.215   2.710 -0.1293 -0.1806 -0.4307
    8CLSB   H72  154   1.044   2.352   2.562 -0.0316 -3.5030  1.4997
    8CLSB   H73  155   0.951   2.154   2.598 -0.6322 -0.7253  1.0189
    8CLSB   H74  156   0.657   2.431   2.570  2.5650  1.1100  0.0077
    8CLSB   H75  157   0.747   2.295   2.783 -0.1083  0.4202 -1.0764
    8CLSB   H76  158   0.877   2.274   2.411 -1.1001  0.8643 -0.4075
    8CLSB   O36  159   0.673   2.223   2.593 -0.0066  0.0623  0.5041
    8CLSB   C48  160   0.591   2.344   2.381 -0.5598 -0.2734  0.2099
    8CLSB   H77  161   0.487   2.353   2.414  0.4180  3.1939  3.0194
    8CLSB   H78  162   0.609   2.433   2.320 -0.1932 -1.7639 -1.9521
    8CLSB   O37  163   0.611   2.230   2.305 -0.0892 -0.0748  0.1009
    8CLSB   H79  164   0.594   2.159   2.369  0.7501  0.0344  0.4612
    8CLSB   O38  165   0.998   2.236   2.778  0.3663  0.2074 -0.5227
    8CLSB   H80  166   1.034   2.325   2.794  4.8740 -1.6987  1.6253
    8CLSB   O39  167   0.924   2.474   2.680  0.0005  0.0696  0.0897
    8CLSB   H81  168   0.944   2.561   2.641  0.2532 -0.0765 -0.1065
    8CLSB   O40  169   0.740   2.090   2.771  0.0525 -0.1536 -0.1488
    9CLSA   C49  170   0.622   2.071   2.856 -0.0552 -0.6363 -0.1220
    9CLSA   C50  171   0.513   1.876   3.030  0.5995 -0.3107 -0.9192
    9CLSA   C51  172   0.682   2.053   2.997  0.6775 -0.5577 -0.1382
    9CLSA   C52  173   0.527   1.958   2.795 -0.1895  0.1980 -0.0164
    9CLSA   C53  174   0.428   1.917   2.906 -0.4221 -0.2432 -0.7281
    9CLSA   H82  175   0.585   1.797   3.007  2.3618  1.4054 -1.5390
    9CLSA   H83  176   0.561   2.162   2.853  0.4877 -0.2798 -0.4837
    9CLSA   H84  177   0.590   1.875   2.762  0.5776  0.9392 -0.4472
    9CLSA   H85  178   0.363   2.003   2.928 -1.3422 -1.3575  1.2438
    9CLSA   H86  179   0.754   1.971   2.989 -1.5132 -2.8884  2.0685
    9CLSA   O41  180   0.458   2.001   2.674  0.3157  0.0588 -0.2972
    9CLSA   H87  181   0.430   2.093   2.689  1.3806  0.7889 -2.3626
    9CLSA   O42  182   0.351   1.810   2.854 -0.0121  0.1253 -0.1316
    9CLSA   H88  183   0.291   1.791   2.928 -2.3725 -0.0370 -1.9527
    9CLSA   O43  184   0.580   1.996   3.078  0.1490 -0.4942 -0.0811
    9CLSA   C54  185   0.748   2.181   3.066 -0.4924  0.3606  0.2461
    9CLSA   H89  186   0.826   2.152   3.137  0.9072  0.2690 -1.2813
    9CLSA   H90  187   0.807   2.233   2.990  0.7313 -0.7641  0.3985
    9CLSA   O44  188   0.640   2.252   3.113 -0.1462  0.3863  0.2325
    9CLSA   H91  189   0.582   2.180   3.142 -0.7682  0.4710 -0.7537
    9CLSA   O45  190   0.430   1.838   3.138 -0.2070 -0.1795  0.1218
   10CLSB   C55  191   0.502   1.750   3.230 -0.1264  0.1915  0.0523
   10CLSB   C56  192   0.665   1.742   3.444 -0.1400 -0.0958  0.4726
   10CLSB   C57  193   0.610   1.823   3.314 -0.4353 -0.5056 -0.2837
   10CLSB   C58  194   0.394   1.676   3.322 -0.0437 -0.2484  0.2294
   10CLSB   C59  195   0.550   1.663   3.510 -0.2259 -0.3902 -0.2219
   10CLSB   H92  196   0.695   1.858   3.255  0.2311 -0.0963  0.8742
   10CLSB   H93  197   0.732   1.663   3.406  0.6089 -0.3656  2.2549
   10CLSB   H94  198   0.332   1.748   3.376  1.4636  2.0307 -0.9222
   10CLSB   H95  199   0.488   1.736   3.562  0.8256 -0.4741  1.2112
   10CLSB   H96  200   0.557   1.682   3.165  0.2586  2.8770 -2.6207
   10CLSB   O46  201   0.470   1.591   3.412 -0.0720 -0.0342 -0.1903
   10CLSB   C60  202   0.297   1.590   3.238  0.7410 -0.4498  0.3860
   10CLSB   H97  203   0.205   1.572   3.296 -0.1856  0.6543 -0.6879
   10CLSB   H98  204   0.267   1.655   3.155  1.5105 -0.8072 -0.1835
   10CLSB   O47  205   0.362   1.469   3.199 -0.3309 -0.0625 -0.8463
   10CLSB   H99  206   0.439   1.472   3.259 -2.5981 -1.2210  2.4028
   10CLSB   O48  207   0.734   1.824   3.534 -0.1507 -0.6481 -0.4192
   10CLSB  H100  208   0.706   1.911   3.501 -2.1311 -0.0973  2.3890
   10CLSB   O49  209   0.551   1.944   3.373  0.0376 -0.6005  0.4178
   10CLSB  H101  210   0.469   1.954   3.322  0.0860 -1.2450  0.1951
   10CLSB   O50  211   0.597   1.564   3.602  0.1519 -0.2292 -0.2312
   10CLSB  H102  212   0.675   1.605   3.643  1.2655 -2.2121 -0.2487
   11SOL     OW  213   3.338   0.803   2.899 -0.1971  0.8221 -0.1142
   11SOL    HW1  214   3.403   0.872   2.869 -0.3029  0.7734 -0.4628
   11SOL    HW2  215   3.288   0.768   2.820 -1.5932  1.8032  0.2888
   12SOL     OW  216   1.979   2.012   3.069 -0.2495  0.1578  0.2386
   12SOL    HW1  217   2.009   2.107   3.065 -2.0580  0.7732  0.3777
   12SOL    HW2  218   1.880   2.009   3.080 -0.9496 -1.7564 -4.3344
   13SOL     OW  219   3.988   1.966   3.302 -0.5768 -0.8600 -0.0980
   13SOL    HW1  220   3.890   1.966   3.284 -0.5612 -1.5624 -0.2166
   13SOL    HW2  221   4.034   2.026   3.236 -0.7427 -1.8822 -1.1725
   14SOL     OW  222   0.947   2.688   4.110 -0.2235 -0.4454 -0.3138
   14SOL    HW1  223   0.946   2.762   4.043 -0.2130  0.5931  0.8063
   14SOL    HW2  224   0.980   2.723   4.198  0.5036 -1.9488  0.0552
   15SOL     OW  225   2.248   4.067   2.670 -0.5323 -0.0360 -0.6248
   15SOL    HW1  226   2.180   4.017   2.725  0.0216 -0.2518 -0.1300
   15SOL    HW2  227   2.222   4.062   2.574 -2.3812  1.6523 -0.2816
   16SOL     OW  228   3.468   0.884   2.299 -0.4120 -0.1436 -0.4910
   16SOL    HW1  229   3.475   0.841   2.389  0.1916 -0.5583 -0.7304
   16SOL    HW2  230   3.372   0.902   2.278 -0.4719  1.0964  0.7694
   17SOL     OW  231   3.122   3.056   3.324  0.5310  0.2626  0.0425
   17SOL    HW1  232   3.140   3.050   3.226 -1.8838 -2.0957 -0.3878
   17SOL    HW2  233   3.171   3.134   3.362  1.3704  1.3824 -3.0481
   18SOL     OW  234   1.428   2.098   1.095 -0.0503 -0.2121 -0.3527
   18SOL    HW1  235   1.384   2.175   1.049 -2.2403 -1.8513 -1.2104
   18SOL    HW2  236   1.497   2.058   1.035  1.3897  1.2781  0.2604
   19SOL     OW  237   1.045   2.676   1.095 -0.5667 -0.6722 -0.0933
   19SOL    HW1  238   1.010   2.604   1.155  1.1010 -0.4445  1.2095
   19SOL    HW2  239   1.080   2.751   1.151  0.7363 -0.3063 -1.3450
   20SOL     OW  240   2.490   0.406   1.160  0.3557 -0.8429 -0.4946
   20SOL    HW1  241   2.441   0.342   1.100  0.5052 -0.3097 -1.1849
   20SOL    HW2  242   2.429   0.482   1.183 -0.1228 -1.6409  1.0337
   21SOL     OW  243   2.167   2.465   0.687  0.4939 -0.2817 -0.2001
   21SOL    HW1  244   2.194   2.409   0.608  0.9162  1.4909 -1.3722
   21SOL    HW2  245   2.146   2.557   0.655 -0.4819  0.1655  1.6350
   22SOL     OW  246   3.664   3.794   0.719 -0.5147  0.0310  0.7459
   22SOL    HW1  247   3.680   3.695   0.730 -1.0214 -0.1206  0.1522
   22SOL    HW2  248   3.632   3.812   0.626 -0.6853  0.7274  0.9341
   23SOL     OW  249   0.869   2.986   0.066  0.5536  0.5894 -0.0456
   23SOL    HW1  250   0.923   3.062   0.099  4.0051 -0.5655 -2.4568
   23SOL    HW2  251   0.915   2.900   0.088  0.7235 -0.3948 -3.5286
   24SOL     OW  252   1.495   1.052   3.320 -0.2894  0.9081 -0.4173
   24SOL    HW1  253   1.461   0.980   3.259 -1.6731  0.1467  1.1747
   24SOL    HW2  254   1.523   1.011   3.407 -0.4254  2.1945  0.2616
   25SOL     OW  255   2.099   2.647   1.234 -0.0697  0.5949  0.5318
   25SOL    HW1  256   2.028   2.583   1.261  0.6558 -0.7372 -0.5487
   25SOL    HW2  257   2.189   2.608   1.256  0.3863  1.3472  0.0661
   26SOL     OW  258   2.211   0.632   1.976  0.2275  0.0079  0.1369
   26SOL    HW1  259   2.246   0.611   1.885 -1.8768  0.2513 -0.7698
   26SOL    HW2  260   2.273   0.697   2.020  0.5805  0.9239 -1.6365
   27SOL     OW  261   1.265   0.738   1.742 -0.2361 -0.4550 -0.2110
   27SOL    HW1  262   1.207   0.755   1.662 -0.1882 -1.7053 -0.5466
   27SOL    HW2  263   1.355   0.708   1.711  0.1839  0.2516  0.3155
   28SOL     OW  264   0.694   2.276   1.240 -0.3569  0.2631 -0.3549
   28SOL    HW1  265   0.694   2.190   1.291  0.7896 -0.2356 -1.1678
   28SOL    HW2  266   0.612   2.279   1.182 -1.6441  0.8092  1.3943
   29SOL     OW  267   0.621   1.431   2.893 -0.2668 -0.5822 -0.6185
   29SOL    HW1  268   0.613   1.331   2.898 -0.6946 -0.4820  1.2495
   29SOL    HW2  269   0.670   1.464   2.973 -2.4092  0.9155  0.1719
   30SOL     OW  270   0.215   3.036   4.081 -0.5730 -0.3240  0.8113
   30SOL    HW1  271   0.206   3.135   4.085  0.4380 -0.2308  0.9300
   30SOL    HW2  272   0.186   3.004   3.991  0.6432  0.2719  0.1801
   31SOL     OW  273   0.542   1.948   3.803 -0.1079 -0.0255 -0.8405
   31SOL    HW1  274   0.627   2.000   3.796  0.0623 -0.4577 -2.5881
   31SOL    HW2  275   0.475   1.986   3.739 -0.6944 -0.6366 -0.6006
   32SOL     OW  276   1.286   0.425   1.368  0.2886  0.3917 -0.6770
   32SOL    HW1  277   1.305   0.400   1.463 -0.7225 -2.3512 -1.1022
   32SOL    HW2  278   1.360   0.484   1.334  0.3797  1.9218  1.9111
   33SOL     OW  279   0.379   3.511   2.590  0.0217 -0.3195  0.4858
   33SOL    HW1  280   0.334   3.586   2.638  1.6361  0.5187  0.7546
   33SOL    HW2  281   0.316   3.471   2.523 -0.5682  1.8909 -0.3424
   34SOL     OW  282   3.159   2.366   2.265 -0.4533  0.1542  0.2113
   34SOL    HW1  283   3.233   2.363   2.197 -2.6075 -0.0610 -2.2843
   34SOL    HW2  284   3.179   2.436   2.333  1.4834  0.8913 -1.0404
   35SOL     OW  285   3.766   3.084   3.216 -0.0591 -0.1694  0.0498
   35SOL    HW1  286   3.863   3.060   3.221 -0.3070 -1.5388 -1.1516
   35SOL    HW2  287   3.725   3.076   3.307  1.1499  1.4400  0.7770
   36SOL     OW  288   1.018   2.749   0.115 -0.1683  0.4424 -0.4496
   36SOL    HW1  289   1.008   2.671   0.177 -0.5214 -1.0369 -2.2809
   36SOL    HW2  290   1.113   2.753   0.083 -0.5331 -0.2903 -1.6579
   37SOL     OW  291   1.569   3.172   2.277  0.1226  0.7423  0.1435
   37SOL    HW1  292   1.559   3.239   2.204  1.0703  0.6344 -0.0919
   37SOL    HW2  293   1.494   3.184   2.342 -0.1635  1.5045 -0.3090
   38SOL     OW  294   1.172   0.499   1.862 -0.0871  0.0389 -0.4475
   38SOL    HW1  295   1.206   0.593   1.874 -0.3839 -0.0013  0.7706
   38SOL    HW2  296   1.213   0.461   1.779  1.2960  0.6780 -0.0967
   39SOL     OW  297   1.767   3.957   1.460  0.1655 -0.2528 -0.4122
   39SOL    HW1  298   1.754   3.966   1.361 -0.3125 -1.5098 -0.4781
   39SOL    HW2  299   1.824   3.877   1.479  0.5744  0.1958  0.3251
   40SOL     OW  300   1.580   1.412   2.359  0.1984  0.2038  0.2167
   40SOL    HW1  301   1.521   1.386   2.436 -0.7836  1.9818  0.0995
   40SOL    HW2  302   1.660   1.460   2.395 -0.6083  1.6606  0.1105
   41SOL     OW  303   2.201   0.964   2.200  0.2349 -0.1999  0.1348
   41SOL    HW1  304   2.248   0.895   2.146 -1.0920 -0.7464 -0.3791
   41SOL    HW2  305   2.107   0.975   2.166 -0.0078  0.8894  1.0600
   42SOL     OW  306   0.665   1.326   3.331 -0.1540 -0.2435 -0.0522
   42SOL    HW1  307   0.612   1.300   3.412 -0.2908 -2.7802 -0.8604
   42SOL    HW2  308   0.759   1.346   3.359  0.3194 -2.9519  0.6471
   43SOL     OW  309   2.169   0.541   2.752 -0.1335 -0.2647  0.0916
   43SOL    HW1  310   2.260   0.501   2.740 -0.1137 -0.4405  0.7561
   43SOL    HW2  311   2.138   0.579   2.665  0.3063 -0.7706 -0.2982
   44SOL     OW  312   3.677   1.797   2.910  0.4964  0.0377  0.6549
   44SOL    HW1  313   3.609   1.869   2.895 -0.3427 -0.2804  2.6134
   44SOL    HW2  314   3.668   1.762   3.003  2.9319 -0.4830  0.7746
   45SOL     OW  315   2.559   2.631   3.450 -0.0809  0.0728  0.0654
   45SOL    HW1  316   2.479   2.687   3.428  0.2038  0.8672  0.9720
   45SOL    HW2  317   2.627   2.688   3.494  0.5427 -0.8372  0.3021
   46SOL     OW  318   3.078   0.129   1.333 -0.5977 -0.4609  0.0646
   46SOL    HW1  319   2.988   0.140   1.291 -0.7105 -0.3403  0.3374
   46SOL    HW2  320   3.090   0.198   1.404  0.6380  1.0600 -1.5325
   47SOL     OW  321   4.217   2.595   0.220 -0.5205  0.3631 -0.0818
   47SOL    HW1  322   4.162   2.559   0.144 -0.3432 -0.2327  0.0675
   47SOL    HW2  323   4.313   2.596   0.193  0.0061 -3.0216  1.2563
   48SOL     OW  324   2.333   3.160   1.667 -0.4519  0.3410  0.6685
   48SOL    HW1  325   2.289   3.218   1.598 -0.9791 -0.6031  0.1944
   48SOL    HW2  326   2.304   3.189   1.758 -3.0012 -0.9549  0.3433
   49SOL     OW  327   4.250   2.697   3.499  0.1547  0.0805 -0.2445
   49SOL    HW1  328   4.158   2.684   3.536  1.0904 -1.2823  1.8150
   49SOL    HW2  329   4.295   2.608   3.493  1.4736  0.7621 -0.8970
   50SOL     OW  330   3.571   3.389   3.747 -0.1348 -0.0241 -0.1512
   50SOL    HW1  331   3.499   3.323   3.726  2.6966 -3.1174 -0.9183
   50SOL    HW2  332   3.596   3.438   3.664  0.8026 -1.3202 -0.6599
   51SOL     OW  333   1.629   3.544   2.302 -0.8448  0.0870  1.0586
   51SOL    HW1  334   1.576   3.629   2.309 -1.1533  0.2993 -2.0783
   51SOL    HW2  335   1.709   3.561   2.245 -0.6236 -1.6148  0.8238
   52SOL     OW  336   2.256   3.155   0.677 -0.2301  0.4597  0.3791
   52SOL    HW1  337   2.260   3.056   0.662 -2.8400  0.7066 -3.6887
   52SOL    HW2  338   2.336   3.198   0.635 -0.8583  0.2069 -1.1608
   53SOL     OW  339   3.084   2.504   1.939  0.0292 -0.0453  0.0075
   53SOL    HW1  340   3.135   2.432   1.986 -1.6764 -0.9202  0.5795
   53SOL    HW2  341   2.987   2.494   1.958 -0.3626  1.7520 -0.8300
   54SOL     OW  342   1.053   1.060   1.557 -0.1715  0.2525 -0.5256
   54SOL    HW1  343   1.131   1.106   1.600 -2.0623  3.4490 -0.1770
   54SOL    HW2  344   1.042   1.094   1.463 -0.8090 -0.5841 -0.7673
   55SOL     OW  345   1.292   2.352   2.773  0.1130  0.0165 -0.2530
   55SOL    HW1  346   1.286   2.271   2.714 -0.6121 -0.6452  0.6920
   55SOL    HW2  347   1.275   2.433   2.718 -3.2990 -0.7453 -0.5873
   56SOL     OW  348   1.869   1.949   0.442  0.6658  0.1631 -0.0081
   56SOL    HW1  349   1.890   2.038   0.401  0.9977 -0.0766 -0.3584
   56SOL    HW2  350   1.820   1.893   0.375  1.9549 -0.5438 -0.3949
   57SOL     OW  351   2.560   0.652   2.292  0.0192 -0.2205 -0.1835
   57SOL    HW1  352   2.601   0.561   2.291  1.0748  0.2200 -1.6273
   57SOL    HW2  353   2.633   0.721   2.289 -0.7790  0.6507 -0.0568
   58SOL     OW  354   1.903   2.226   0.371  0.1706  0.0177  0.3054
   58SOL    HW1  355   1.990   2.235   0.323  1.0625 -1.2894  1.5954
   58SOL    HW2  356   1.902   2.289   0.449 -0.1529  0.2039  0.1530
   59SOL     OW  357   0.349   3.367   1.242 -0.1736 -0.2410 -0.3105
   59SOL    HW1  358   0.412   3.431   1.286  0.5824 -0.9795 -0.2906
   59SOL    HW2  359   0.402   3.300   1.190 -1.0044 -0.1141 -1.3514
   60SOL     OW  360   3.197   2.119   0.806  0.2552 -0.1745  0.2083
   60SOL    HW1  361   3.293   2.138   0.826  0.5006  0.0862 -1.1103
   60SOL    HW2  362   3.186   2.107   0.707 -1.4799  2.2977  0.0206
   61SOL     OW  363   1.515   2.592   0.557  0.0558 -0.0902  0.1179
   61SOL    HW1  364   1.556   2.631   0.475 -0.1529 -1.3862 -0.6241
   61SOL    HW2  365   1.480   2.501   0.537 -0.6542 -0.1478  1.4672
   62SOL     OW  366   0.064   3.004   1.996  0.1608 -0.2327  0.4753
   62SOL    HW1  367  -0.019   3.044   1.959  2.0101  1.3520 -2.3613
   62SOL    HW2  368   0.105   3.067   2.062  0.0704 -0.1761  0.4780
   63SOL     OW  369   3.699   4.137   1.900  0.4788  0.1848  0.3269
   63SOL    HW1  370   3.747   4.180   1.977  0.9973  1.1845 -0.5323
   63SOL    HW2  371   3.701   4.198   1.821 -1.5932 -0.0408  0.0210
   64SOL     OW  372   0.987   0.759   2.005 -0.0098 -0.0615 -0.2839
   64SOL    HW1  373   0.888   0.752   1.997  0.2372 -2.0826 -2.8197
   64SOL    HW2  374   1.029   0.676   1.968  2.6640  0.9839  0.1722
   65SOL     OW  375   4.082   4.163   1.139  0.1880 -0.2448 -0.1930
   65SOL    HW1  376   4.126   4.182   1.052  0.4554 -0.7666 -0.1746
   65SOL    HW2  377   4.113   4.074   1.173  1.2917  0.6105  1.1805
   66SOL     OW  378   2.480   3.322   2.204 -0.1672 -0.7429  0.1490
   66SOL    HW1  379   2.463   3.250   2.137  0.9702  0.5363 -1.6224
   66SOL    HW2  380   2.485   3.410   2.156  1.1709  0.1749  1.8570
   67SOL     OW  381   3.507   0.026   1.519  0.6693  0.0490  0.1667
   67SOL    HW1  382   3.496   0.030   1.420  0.1102  0.0516  0.2273
   67SOL    HW2  383   3.428   0.068   1.563  1.1723  0.5440  0.6088
   68SOL     OW  384   0.778   1.039   2.728  0.2654  0.1513 -0.0433
   68SOL    HW1  385   0.710   1.087   2.783 -0.5440  0.3091 -1.1427
   68SOL    HW2  386   0.781   0.943   2.756 -1.2216 -0.1142 -0.7119
   69SOL     OW  387   3.272   2.820   0.869  0.2444  0.0110 -0.0425
   69SOL    HW1  388   3.352   2.864   0.827 -0.0111  0.7816  0.2666
   69SOL    HW2  389   3.293   2.798   0.964  0.3362 -0.4604 -0.1672
   70SOL     OW  390   4.215   3.949   0.356 -0.1101 -0.2427 -0.4353
   70SOL    HW1  391   4.135   3.930   0.299  0.2045 -0.1384 -0.9152
   70SOL    HW2  392   4.228   4.048   0.362 -0.0749 -0.2561 -0.2700
   71SOL     OW  393   0.619   1.701   3.942 -0.1133 -0.1382 -0.1474
   71SOL    HW1  394   0.589   1.777   3.884  0.0858 -0.5904 -0.8548
   71SOL    HW2  395   0.618   1.731   4.038 -0.5438  0.5882 -0.3655
   72SOL     OW  396   1.066   3.907   1.199  0.2512  0.1624  0.0031
   72SOL    HW1  397   1.142   3.906   1.263  0.6311  0.6228 -0.4231
   72SOL    HW2  398   1.057   4.000   1.161 -0.5943  0.1393  0.1389
   73SOL     OW  399   4.024   0.191   3.833 -0.8017  0.1485 -1.2630
   73SOL    HW1  400   4.103   0.133   3.851 -0.6163 -0.5007 -3.8184
   73SOL    HW2  401   3.956   0.178   3.905  1.3647  0.7713  1.0458
   74SOL     OW  402   2.561   3.435   2.455 -0.0490  0.6689  0.4253
   74SOL    HW1  403   2.618   3.369   2.504 -0.1297 -0.5126 -1.0096
   74SOL    HW2  404   2.540   3.400   2.363 -0.8778  2.2755 -0.0512
   75SOL     OW  405   3.822   2.358   3.347  0.3128  0.6936 -0.0307
   75SOL    HW1  406   3.874   2.409   3.279  0.5830  0.0818 -0.2887
   75SOL    HW2  407   3.871   2.361   3.435  0.9297 -0.1068 -0.3391
   76SOL     OW  408   4.197   4.104   2.441  0.0342 -0.4843  0.5853
   76SOL    HW1  409   4.143   4.051   2.376  2.5210 -1.0535 -1.1662
   76SOL    HW2  410   4.169   4.199   2.439 -1.4626 -0.9128  0.4179
   77SOL     OW  411   1.093   3.246   0.040 -0.6806  0.8412  0.1898
   77SOL    HW1  412   1.037   3.210  -0.035 -0.9117 -2.1459  1.6300
   77SOL    HW2  413   1.190   3.227   0.021 -0.8039 -0.7650  0.9588
   78SOL     OW  414   1.985   2.967   0.227 -0.6278  0.1740 -0.3736
   78SOL    HW1  415   1.960   2.944   0.133  0.4429 -2.6304 -0.0513
   78SOL    HW2  416   2.084   2.959   0.237 -0.8911 -1.4869  1.4175
   79SOL     OW  417   1.972   0.159   0.547 -0.2100  0.5591 -0.2142
   79SOL    HW1  418   2.009   0.166   0.454 -0.2950  1.7687 -0.1671
   79SOL    HW2  419   1.908   0.083   0.550 -0.5401  0.7705 -1.2648
   80SOL     OW  420   1.481   4.090   0.984 -0.1081 -0.6429 -0.2323
   80SOL    HW1  421   1.535   4.135   1.056 -2.3483  0.1611  1.0440
   80SOL    HW2  422   1.503   4.131   0.896  0.7786  0.2123  0.3663
   81SOL     OW  423   3.083   4.181   3.320 -0.3810 -0.5036 -0.4686
   81SOL    HW1  424   3.118   4.200   3.228 -0.2460 -0.4024 -0.3975
   81SOL    HW2  425   3.017   4.252   3.346 -1.6346 -1.3999 -1.1155
   82SOL     OW  426   2.555   1.173   0.872 -0.6866 -0.0856  0.2798
   82SOL    HW1  427   2.616   1.179   0.793  0.6431  0.4846  1.3093
   82SOL    HW2  428   2.564   1.256   0.927 -2.1886 -0.1273  0.6323
   83SOL     OW  429   2.801   4.229   1.040 -0.0688 -0.2116  0.4600
   83SOL    HW1  430   2.738   4.250   0.966  1.2730 -2.4583 -1.4917
   83SOL    HW2  431   2.768   4.148   1.089 -0.6076  0.8716  1.9543
   84SOL     OW  432   0.226   1.750   4.152 -0.3050  0.0454 -0.2621
   84SOL    HW1  433   0.228   1.846   4.124 -0.6924  0.2611  0.4311
   84SOL    HW2  434   0.147   1.706   4.109 -0.2446  0.0859 -0.4174
   85SOL     OW  435   0.297   2.020   3.324  0.0609  0.1686  0.7064
   85SOL    HW1  436   0.299   2.110   3.279 -0.2763  0.8004  1.9176
   85SOL    HW2  437   0.253   1.954   3.262 -0.2990  0.9868  0.0615
   86SOL     OW  438   0.378   2.483   0.014 -0.0697 -0.1686  0.2307
   86SOL    HW1  439   0.465   2.434   0.016  0.0107 -0.0022  1.3391
   86SOL    HW2  440   0.381   2.552  -0.059 -0.0317 -1.5014 -1.0672
   87SOL     OW  441   3.743   1.902   2.403  0.6208  0.1604 -0.1350
   87SOL    HW1  442   3.790   1.871   2.321  0.0440 -1.3429  0.0791
   87SOL    HW2  443   3.803   1.890   2.482  1.3858  2.1195 -0.3575
   88SOL     OW  444   3.648   0.349   2.408 -0.0990 -0.3887  0.0392
   88SOL    HW1  445   3.584   0.380   2.338  1.4681  1.4701 -0.6822
   88SOL    HW2  446   3.739   0.338   2.366  0.1337 -2.9005  1.0284
   89SOL     OW  447   4.042   3.073   0.828  0.0939  0.0552 -0.1062
   89SOL    HW1  448   4.039   3.139   0.753 -2.1606 -0.4118 -0.5046
   89SOL    HW2  449   4.034   2.981   0.790 -0.3875 -0.2243  0.6450
   90SOL     OW  450   0.321   2.095   2.148 -0.2389  0.1674 -0.8105
   90SOL    HW1  451   0.229   2.056   2.136 -0.4574  0.2822  0.3533
   90SOL    HW2  452   0.315   2.172   2.212  0.6259  0.3732 -0.9742
   91SOL     OW  453   3.651   3.553   3.545 -0.5293 -0.0057 -0.1395
   91SOL    HW1  454   3.647   3.635   3.602  0.1156 -0.8691  1.2001
   91SOL    HW2  455   3.742   3.546   3.504  0.1165 -1.0340  1.3498
   92SOL     OW  456   4.137   1.074   1.609  0.7522  0.9265  0.3888
   92SOL    HW1  457   4.152   1.143   1.538  1.9309  1.4387  1.1032
   92SOL    HW2  458   4.195   0.995   1.591 -1.9500 -0.7990 -1.4897
   93SOL     OW  459   1.162   0.922   0.833 -0.0727 -0.1074 -0.2936
   93SOL    HW1  460   1.154   0.826   0.860  1.3138 -0.4397 -0.9923
   93SOL    HW2  461   1.071   0.958   0.813 -0.6171 -1.2494  0.0513
   94SOL     OW  462   2.352   0.736   0.958  0.0012  0.4519 -0.7480
   94SOL    HW1  463   2.308   0.773   0.876 -0.5365 -0.4816 -0.8858
   94SOL    HW2  464   2.427   0.675   0.930 -1.3715 -1.3692 -0.6177
   95SOL     OW  465   0.624   3.786   2.244  0.2495  0.5520 -0.2197
   95SOL    HW1  466   0.525   3.789   2.237  0.1826 -1.6700 -0.8555
   95SOL    HW2  467   0.660   3.721   2.177  1.8272 -1.2571  2.2087
   96SOL     OW  468   3.481   2.037   1.980 -0.1979  0.2690 -0.4443
   96SOL    HW1  469   3.447   1.998   2.066  0.9640 -1.2253 -0.6142
   96SOL    HW2  470   3.411   2.024   1.909 -0.6705  0.4000 -0.0135
   97SOL     OW  471   1.941   1.809   3.483  0.4767 -0.3147  0.8253
   97SOL    HW1  472   1.871   1.805   3.412  1.1238 -0.3576  0.1756
   97SOL    HW2  473   1.897   1.806   3.573 -0.2991 -1.0542  0.4300
   98SOL     OW  474   3.382   3.450   1.817  0.8042  0.0332 -0.4487
   98SOL    HW1  475   3.305   3.445   1.880  1.7728  1.4605  0.9094
   98SOL    HW2  476   3.355   3.502   1.736  0.1011 -0.2348 -0.3900
   99SOL     OW  477   0.729   2.005   1.317 -0.6311  0.1461 -0.9235
   99SOL    HW1  478   0.807   1.972   1.264 -1.3828 -2.6621 -0.4698
   99SOL    HW2  479   0.645   1.967   1.278 -1.5453  1.1162  0.0357
  100SOL     OW  480   0.734   0.622   2.056 -0.6294  0.9821 -0.1052
  100SOL    HW1  481   0.768   0.565   1.982 -0.5475  0.8082  0.0640
  100SOL    HW2  482   0.743   0.572   2.142  0.1381  1.5460  0.1438
  101SOL     OW  483   1.968   0.699   1.225  0.3375  0.2927  0.0252
  101SOL    HW1  484   1.954   0.695   1.126 -1.8002 -2.1872  0.3213
  101SOL    HW2  485   1.932   0.785   1.260 -2.0840 -0.2322 -0.9989
  102SOL     OW  486   1.363   2.044   0.626 -0.5706  0.6872  0.6917
  102SOL    HW1  487   1.410   2.051   0.538  0.6050  0.4067  1.2674
  102SOL    HW2  488   1.264   2.047   0.612 -0.3870  1.1095 -0.5857
  103SOL     OW  489   1.191   1.725   3.171 -0.0358 -0.4578 -0.5614
  103SOL    HW1  490   1.256   1.796   3.145 -1.0411 -0.0401 -2.0651
  103SOL    HW2  491   1.238   1.637   3.175  0.3754 -0.4349 -3.1939
  104SOL     OW  492   4.127   1.761   3.197 -0.4368 -0.3011 -0.9479
  104SOL    HW1  493   4.061   1.821   3.243 -0.8573 -1.8912  0.6477
  104SOL    HW2  494   4.082   1.718   3.119 -1.4989 -1.6907  0.3678
  105SOL     OW  495   3.482   3.021   1.670  0.0549 -0.5354 -0.2819
  105SOL    HW1  496   3.556   2.957   1.650  0.6400  0.2665 -0.7357
  105SOL    HW2  497   3.521   3.104   1.711 -0.3705  0.5908 -2.0561
  106SOL     OW  498   4.172   3.896   1.218  0.0437 -0.4704  0.1484
  106SOL    HW1  499   4.078   3.869   1.241 -1.5660  3.3675 -1.1096
  106SOL    HW2  500   4.199   3.848   1.134 -1.8407  0.1817 -0.8902
  107SOL     OW  501   0.536   1.307   3.576 -0.2436  0.4442  0.1984
  107SOL    HW1  502   0.546   1.407   3.582 -1.1754  0.5316  0.4656
  107SOL    HW2  503   0.444   1.282   3.608 -0.0735 -0.4841 -0.0376
  108SOL     OW  504   1.462   1.410   3.098 -0.1069 -0.1469 -0.1129
  108SOL    HW1  505   1.472   1.473   3.021 -1.4926 -1.1166 -1.1048
  108SOL    HW2  506   1.371   1.420   3.138 -0.0437 -0.9486  0.2504
  109SOL     OW  507   2.776   3.311   0.274 -0.2415  0.6493 -0.1234
  109SOL    HW1  508   2.722   3.231   0.298 -1.0585  0.8246 -1.3139
  109SOL    HW2  509   2.851   3.321   0.340  0.1642 -1.3561 -0.2071
  110SOL     OW  510   1.703   2.092   4.013  0.5164 -0.1379 -0.4866
  110SOL    HW1  511   1.639   2.025   4.049  0.5229 -0.1284 -0.4571
  110SOL    HW2  512   1.662   2.137   3.933  0.4288 -0.0299 -0.3809
  111SOL     OW  513   0.849   1.066   1.058  0.7933  0.2442 -0.2010
  111SOL    HW1  514   0.873   1.050   0.963  1.7486  0.7807 -0.0578
  111SOL    HW2  515   0.931   1.059   1.115  0.5121  1.4264  0.3797
  112SOL     OW  516   0.108   1.353   0.822  0.5131  0.2060  0.6336
  112SOL    HW1  517   0.104   1.253   0.819  1.3604  0.1203  1.5833
  112SOL    HW2  518   0.015   1.389   0.830  0.1544 -0.4648 -0.3330
  113SOL     OW  519   1.927   1.779   0.090  0.4139  0.0842 -0.9315
  113SOL    HW1  520   2.018   1.756   0.124  0.3679  2.3252  0.9503
  113SOL    HW2  521   1.936   1.838   0.010  0.7748  2.5535  0.8201
  114SOL     OW  522   4.239   1.829   3.950 -0.6245 -0.3890  0.2176
  114SOL    HW1  523   4.328   1.821   3.906 -0.5868 -3.5462  0.5939
  114SOL    HW2  524   4.177   1.761   3.909 -2.8516  1.5968  0.0824
  115SOL     OW  525   3.417   2.811   3.522 -0.1743 -0.6901  0.0336
  115SOL    HW1  526   3.473   2.865   3.585 -1.6952  1.3733 -0.2491
  115SOL    HW2  527   3.449   2.717   3.521  0.9318 -0.4253  2.6295
  116SOL     OW  528   3.786   0.954   3.593  0.3954  0.5123  0.3869
  116SOL    HW1  529   3.687   0.960   3.579  0.3991  0.1749  0.2092
  116SOL    HW2  530   3.818   0.864   3.564  0.6004  0.2422  1.3891
  117SOL     OW  531   0.066   2.566   3.014  0.1972 -0.0828  0.9963
  117SOL    HW1  532   0.005   2.642   2.988  0.0002 -0.3732  0.5981
  117SOL    HW2  533   0.099   2.582   3.107 -0.8898 -0.1652  1.4190
  118SOL     OW  534   2.009   3.974   4.206 -0.1079  0.0786  0.1292
  118SOL    HW1  535   1.932   3.929   4.161  0.5495 -2.1529  1.0643
  118SOL    HW2  536   2.067   3.904   4.248  1.4911  1.8088  0.9329
  119SOL     OW  537   3.346   2.377   2.075 -0.1009 -0.4939 -0.3181
  119SOL    HW1  538   3.364   2.476   2.079  0.4400 -0.6065  0.2487
  119SOL    HW2  539   3.339   2.349   1.979  2.5542 -0.3776 -0.6268
  120SOL     OW  540   0.730   3.763   1.651 -0.3260 -0.2022 -0.3174
  120SOL    HW1  541   0.805   3.725   1.598  0.4927  1.1104 -0.1539
  120SOL    HW2  542   0.683   3.690   1.700 -1.6247 -1.5902 -3.4256
  121SOL     OW  543   1.640   1.463   0.616 -0.5297 -0.4292 -0.8588
  121SOL    HW1  544   1.722   1.520   0.625 -1.3984  0.8044 -0.6425
  121SOL    HW2  545   1.619   1.422   0.705 -1.9583  1.8265 -0.0829
  122SOL     OW  546   2.894   3.140   1.410 -0.2536 -0.4106  0.6752
  122SOL    HW1  547   2.823   3.208   1.392  1.0205  0.9094  0.3974
  122SOL    HW2  548   2.855   3.065   1.463 -1.5477  0.9225  1.7033
  123SOL     OW  549   3.932   2.218   2.287  0.0492  0.0769  0.1807
  123SOL    HW1  550   3.919   2.249   2.193 -0.6860  1.9132  0.8547
  123SOL    HW2  551   3.844   2.220   2.335  0.4168 -0.8364  0.9336
  124SOL     OW  552   3.025   2.294   1.384 -0.0170  0.1758 -0.2657
  124SOL    HW1  553   2.941   2.344   1.361  0.3939  0.3468 -1.4435
  124SOL    HW2  554   3.101   2.359   1.387  0.4401 -0.2923 -1.3407
  125SOL     OW  555   3.826   0.317   1.054  0.1604 -0.5359 -0.2473
  125SOL    HW1  556   3.896   0.311   1.125 -0.2487  0.6839  0.2992
  125SOL    HW2  557   3.823   0.232   1.002  1.4676 -0.9066  0.2589
  126SOL     OW  558   3.264   1.542   3.306  0.0063 -0.0241  0.0303
  126SOL    HW1  559   3.190   1.567   3.243  0.6117 -0.9860 -1.1136
  126SOL    HW2  560   3.315   1.624   3.330 -0.7840  0.4951 -0.0007
  127SOL     OW  561   2.216   0.585   3.607  0.2404 -0.0270  0.0222
  127SOL    HW1  562   2.243   0.522   3.535 -0.2716 -0.5872  0.3065
  127SOL    HW2  563   2.130   0.630   3.582  0.2170 -0.0022  0.1422
  128SOL     OW  564   0.741   3.157   1.388  0.1454 -0.2815  0.0297
  128SOL    HW1  565   0.643   3.150   1.372  0.0255  0.1784  0.5610
  128SOL    HW2  566   0.760   3.238   1.443  0.9705  0.5241 -1.3777
  129SOL     OW  567   1.346   2.476   1.824  0.1541 -0.4689  0.3251
  129SOL    HW1  568   1.282   2.420   1.876 -1.4441 -0.6939 -1.7625
  129SOL    HW2  569   1.299   2.558   1.791  0.7590 -0.9271 -1.7785
  130SOL     OW  570   3.659   3.879   1.747  0.1977 -0.0963  0.1363
  130SOL    HW1  571   3.617   3.805   1.800 -0.8066 -0.7982 -1.5475
  130SOL    HW2  572   3.670   3.960   1.805 -2.1005 -0.3823  1.0702
  131SOL     OW  573   3.735   2.086   4.219 -0.0492 -0.0737 -0.2327
  131SOL    HW1  574   3.731   2.181   4.247 -1.2386 -0.1903  0.0230
  131SOL    HW2  575   3.671   2.070   4.143  0.4468 -0.5798 -0.5615
  132SOL     OW  576   4.129   2.183   2.513 -0.1597  0.3004  0.1114
  132SOL    HW1  577   4.220   2.148   2.491 -1.1692 -2.7331  0.2970
  132SOL    HW2  578   4.075   2.191   2.429 -0.5451 -0.4993  0.2789
  133SOL     OW  579   1.666   3.127   4.234  0.0499 -0.0426 -0.2866
  133SOL    HW1  580   1.615   3.203   4.273 -1.3519 -0.6905 -0.7889
  133SOL    HW2  581   1.694   3.149   4.141  2.1561  0.9421  0.5121
  134SOL     OW  582   1.722   0.346   1.674 -0.2217  0.0649 -0.5394
  134SOL    HW1  583   1.781   0.394   1.739  2.5220 -1.1493 -1.9570
  134SOL    HW2  584   1.686   0.263   1.718 -2.1240  1.5014  0.7792
  135SOL     OW  585   3.132   3.389   1.967 -0.2249  0.5153  0.9348
  135SOL    HW1  586   3.052   3.402   1.908 -0.0509  2.2147  1.0221
  135SOL    HW2  587   3.103   3.350   2.054 -0.8029  0.1858  0.6013
  136SOL     OW  588   0.024   2.527   2.295  0.0874  0.2168 -0.3146
  136SOL    HW1  589  -0.060   2.507   2.345  0.7871 -1.9681  0.0776
  136SOL    HW2  590   0.002   2.542   2.198 -0.6097 -2.9105 -0.7633
  137SOL     OW  591   3.330   0.220   3.088 -0.0385 -0.0314  0.9393
  137SOL    HW1  592   3.239   0.181   3.074 -0.0262  0.9445 -3.1249
  137SOL    HW2  593   3.322   0.320   3.094  0.7795  0.1782 -0.8466
  138SOL     OW  594   1.636   3.175   3.967 -0.4147  0.5174 -0.3000
  138SOL    HW1  595   1.560   3.238   3.952 -0.2531  0.5954 -0.8174
  138SOL    HW2  596   1.602   3.081   3.960 -0.7029  0.5385  0.7113
  139SOL     OW  597   2.479   1.511   2.865  0.5108  0.2984 -0.2090
  139SOL    HW1  598   2.448   1.416   2.865 -1.1675  0.7971  1.0618
  139SOL    HW2  599   2.468   1.550   2.774 -0.9949 -0.0833 -0.2163
  140SOL     OW  600   0.380   2.881   2.970 -0.2081  0.1817 -0.1310
  140SOL    HW1  601   0.459   2.852   2.916  0.6203  0.0580  1.0849
  140SOL    HW2  602   0.412   2.915   3.059 -1.3530  2.2555 -0.4375
  141SOL     OW  603   1.218   1.811   0.925 -0.3570 -0.2734 -0.1598
  141SOL    HW1  604   1.293   1.811   0.858 -1.0375  0.2601 -0.9464
  141SOL    HW2  605   1.190   1.717   0.943  1.2564 -0.5689  1.0300
  142SOL     OW  606   1.322   3.178   0.623 -0.3910  0.4700  0.0828
  142SOL    HW1  607   1.360   3.251   0.679 -1.0915  2.5270 -1.9868
  142SOL    HW2  608   1.307   3.097   0.681 -0.0079  2.0594  2.5549
  143SOL     OW  609   1.604   1.718   3.715  0.0772 -0.0163  0.1223
  143SOL    HW1  610   1.694   1.755   3.738 -0.2820  0.8683  0.1550
  143SOL    HW2  611   1.537   1.792   3.716 -0.7713 -0.7727  0.7384
  144SOL     OW  612   1.592   2.834   0.720 -0.0460 -0.1748 -0.4117
  144SOL    HW1  613   1.546   2.764   0.665  0.4429 -0.2932 -0.6842
  144SOL    HW2  614   1.574   2.817   0.817  1.5893 -1.8588 -0.3239
  145SOL     OW  615   3.366   4.167   0.983 -0.0332  0.0917 -0.0492
  145SOL    HW1  616   3.367   4.182   1.082 -1.2968 -0.3309  0.0431
  145SOL    HW2  617   3.294   4.102   0.961  0.0624  0.3857 -1.2811
  146SOL     OW  618   2.620   0.117   1.402  0.0124  0.0287  0.0814
  146SOL    HW1  619   2.605   0.215   1.414 -0.2193 -0.1747  1.6564
  146SOL    HW2  620   2.705   0.103   1.352  0.1950  1.0232  0.0824
  147SOL     OW  621   2.615   1.207   3.418  0.5881 -0.2243 -0.2993
  147SOL    HW1  622   2.663   1.284   3.461  0.6948 -0.8183  0.6854
  147SOL    HW2  623   2.565   1.157   3.488 -1.4552  0.3327 -1.2994
  148SOL     OW  624   4.073   3.596   3.186  0.1351  0.2449 -0.0511
  148SOL    HW1  625   4.140   3.665   3.159 -0.1061  0.9609  1.0914
  148SOL    HW2  626   4.121   3.512   3.211  0.4730  0.1645 -0.9516
  149SOL     OW  627   3.048   4.198   4.219 -0.4468 -0.0300  0.0966
  149SOL    HW1  628   2.974   4.131   4.218 -1.4063  1.0024 -0.8897
  149SOL    HW2  629   3.095   4.197   4.131 -1.0119  1.1519 -0.2348
  150SOL     OW  630   1.725   1.827   1.238 -0.2614 -0.5790  0.3366
  150SOL    HW1  631   1.654   1.819   1.307 -1.2293 -0.5476 -0.6391
  150SOL    HW2  632   1.772   1.739   1.229 -2.0674 -1.4674 -0.9840
  151SOL     OW  633   0.103   2.946   3.024 -0.4057  0.3338 -0.3826
  151SOL    HW1  634   0.198   2.915   3.013  0.0065  0.8686  1.2995
  151SOL    HW2  635   0.043   2.889   2.968  0.6608 -1.4352  0.1858
  152SOL     OW  636   1.557   3.424   0.725  0.1183  1.0013  0.0154
  152SOL    HW1  637   1.628   3.354   0.719  0.0494  0.9332 -0.0077
  152SOL    HW2  638   1.578   3.498   0.660 -0.7682  0.1398 -1.3115
  153SOL     OW  639   2.974   2.463   2.889  0.1726 -0.3852  0.3852
  153SOL    HW1  640   3.062   2.506   2.908 -0.8307  2.7579 -1.4028
  153SOL    HW2  641   2.968   2.441   2.792 -0.9082 -0.7636  0.5203
  154SOL     OW  642   3.553   2.934   3.045 -0.0157  0.3741  0.3129
  154SOL    HW1  643   3.586   2.990   3.121 -0.1102  0.5486  0.2247
  154SOL    HW2  644   3.530   2.993   2.968 -0.3001  0.2326  0.2874
  155SOL     OW  645   1.348   1.170   2.179  0.4543  0.4320  0.1688
  155SOL    HW1  646   1.282   1.237   2.213  0.8781  0.4938  0.8754
  155SOL    HW2  647   1.298   1.096   2.134  0.0280  1.6550 -1.4451
  156SOL     OW  648   1.271   2.870   3.909  0.3620  0.2193  0.0815
  156SOL    HW1  649   1.195   2.890   3.971 -0.3866 -0.3661 -0.6165
  156SOL    HW2  650   1.265   2.774   3.880  1.6682  0.0162  0.4081
  157SOL     OW  651   1.475   1.852   0.781 -0.0406  0.3447 -0.0212
  157SOL    HW1  652   1.552   1.873   0.842  0.3854 -1.0785 -0.0340
  157SOL    HW2  653   1.437   1.938   0.746  1.6405  1.0841 -0.1440
  158SOL     OW  654   2.675   3.340   0.734  0.2024  0.3968 -0.3576
  158SOL    HW1  655   2.752   3.402   0.748 -0.7275  1.4879  0.0847
  158SOL    HW2  656   2.706   3.246   0.745  1.2407  0.8654  0.9356
  159SOL     OW  657   1.909   3.016   2.643 -0.6558  0.0060  0.3131
  159SOL    HW1  658   1.923   3.085   2.573 -0.2698 -1.4152 -1.0573
  159SOL    HW2  659   1.846   2.947   2.609 -0.5007 -0.6850  1.3892
  160SOL     OW  660   1.678   3.934   0.738  0.0357 -0.2051  0.6576
  160SOL    HW1  661   1.757   3.899   0.687 -1.2383 -1.1351 -0.7503
  160SOL    HW2  662   1.624   3.993   0.679 -0.6250 -0.0105  1.4361
  161SOL     OW  663   3.992   2.060   4.252 -0.0167 -0.0271 -1.4695
  161SOL    HW1  664   3.893   2.073   4.250 -0.1758 -1.0896 -1.1836
  161SOL    HW2  665   4.012   1.974   4.298  1.1977  1.7493  1.6305
  162SOL     OW  666   1.247   3.117   2.097  0.1317  0.4518 -0.3683
  162SOL    HW1  667   1.325   3.117   2.035  0.1910  2.3491 -0.3557
  162SOL    HW2  668   1.258   3.190   2.164 -2.9415  2.8215 -2.1584
  163SOL     OW  669   0.990   1.335   3.051 -0.6282 -0.6414 -0.8083
  163SOL    HW1  670   1.007   1.249   3.100  0.6215 -0.3691 -0.7155
  163SOL    HW2  671   0.984   1.316   2.953 -2.0353 -1.0430 -0.6593
  164SOL     OW  672   2.705   1.951   3.618  0.0672 -0.3550 -0.3501
  164SOL    HW1  673   2.621   1.969   3.668 -0.3975 -2.0383 -0.4647
  164SOL    HW2  674   2.683   1.915   3.527  0.8079 -2.9267  0.3858
  165SOL     OW  675   0.417   3.426   1.947 -0.2208  0.1695 -0.2080
  165SOL    HW1  676   0.498   3.370   1.927  2.2479  3.0868  0.9488
  165SOL    HW2  677   0.401   3.425   2.046 -2.6415 -1.5540 -0.5317
  166SOL     OW  678   2.791   2.709   1.307  0.6838  0.2273  0.1967
  166SOL    HW1  679   2.844   2.746   1.231  0.1049  3.7454  1.3258
  166SOL    HW2  680   2.694   2.714   1.285  0.5689 -1.5219  0.1027
  167SOL     OW  681   3.934   3.133   3.892 -0.2331  0.3524 -0.3551
  167SOL    HW1  682   4.003   3.193   3.851  0.9088 -0.5325  0.2084
  167SOL    HW2  683   3.935   3.146   3.992  0.4512 -1.0103 -0.1687
  168SOL     OW  684   2.617   2.567   1.879  0.3445 -0.4374 -0.1629
  168SOL    HW1  685   2.538   2.548   1.821  1.9380  0.4879 -2.8158
  168SOL    HW2  686   2.619   2.665   1.901 -0.7408 -0.9214  2.3452
  169SOL     OW  687   1.901   2.253   4.097 -0.3365 -0.3781  0.5087
  169SOL    HW1  688   1.822   2.201   4.064 -0.0695 -1.9160  2.1168
  169SOL    HW2  689   1.890   2.269   4.195  0.6522  0.7338  0.4554
  170SOL     OW  690   0.085   4.032   2.696  0.0652 -0.9167 -0.0833
  170SOL    HW1  691   0.165   4.089   2.716 -0.7161 -0.5628  2.2445
  170SOL    HW2  692   0.049   4.056   2.606  0.8854  0.9209  0.0461
  171SOL     OW  693   1.413   3.130   0.915  0.4089 -0.4900 -0.0468
  171SOL    HW1  694   1.342   3.198   0.932  0.2966 -0.3461 -1.0225
  171SOL    HW2  695   1.380   3.039   0.941  0.6698 -0.1634  1.5613
  172SOL     OW  696   0.979   1.956   1.785  0.5747 -0.1237  0.5750
  172SOL    HW1  697   0.919   1.878   1.805  0.3168 -0.0341  0.1684
  172SOL    HW2  698   0.947   2.001   1.702 -0.6064  1.7186  1.9357
  173SOL     OW  699   0.979   3.154   2.145 -0.1616  0.1376 -0.0856
  173SOL    HW1  700   0.926   3.092   2.087  0.3336 -0.4576  0.0971
  173SOL    HW2  701   1.076   3.146   2.121 -0.1366  1.1713 -0.3692
  174SOL     OW  702   1.987   1.120   1.791 -0.6077 -0.5260 -0.1119
  174SOL    HW1  703   1.913   1.171   1.747  0.6978  0.5781 -1.1033
  174SOL    HW2  704   1.987   1.026   1.756 -1.8472 -0.6978  0.2966
  175SOL     OW  705   3.484   0.767   2.549 -0.2767 -0.4226  0.3717
  175SOL    HW1  706   3.519   0.675   2.567 -0.5341 -0.3624  1.1804
  175SOL    HW2  707   3.537   0.833   2.601 -1.0123 -0.2484  0.9120
  176SOL     OW  708   3.959   0.047   0.712  0.1332 -0.5613 -0.2157
  176SOL    HW1  709   3.924   0.050   0.806 -0.9050  0.1744 -0.6081
  176SOL    HW2  710   3.889   0.010   0.651  0.1097  0.6861 -0.9801
  177SOL     OW  711   1.606   4.254   1.205  0.3287 -0.1763 -0.3681
  177SOL    HW1  712   1.612   4.347   1.169  0.7148 -0.4564 -1.0320
  177SOL    HW2  713   1.560   4.257   1.294  0.6751  0.6955 -0.2042
  178SOL     OW  714   4.111   1.422   3.024 -0.7625 -0.1099 -0.1884
  178SOL    HW1  715   4.207   1.449   3.019 -0.1064 -2.2970 -0.5821
  178SOL    HW2  716   4.096   1.367   3.107 -1.4553 -0.5476 -0.5922
  179SOL     OW  717   2.822   2.866   0.884 -0.1827  0.0906  0.1768
  179SOL    HW1  718   2.759   2.943   0.878  1.2258  1.2454 -0.2160
  179SOL    HW2  719   2.887   2.870   0.808  2.5615  0.9535  2.4219
  180SOL     OW  720   1.503   1.112   3.714 -0.2337 -0.2182  0.0246
  180SOL    HW1  721   1.554   1.189   3.674 -2.8504  0.9271 -1.3428
  180SOL    HW2  722   1.438   1.148   3.782  0.4724 -1.5965  1.4890
  181SOL     OW  723   2.536   1.383   1.085 -0.1633 -0.2700  0.2631
  181SOL    HW1  724   2.553   1.471   1.130  1.1164 -1.0694  1.4120
  181SOL    HW2  725   2.438   1.366   1.084 -0.4530  1.2187 -0.1103
  182SOL     OW  726   2.780   1.001   1.601 -0.3485  0.7372 -0.2766
  182SOL    HW1  727   2.696   1.024   1.650 -0.2163  1.2167 -0.2650
  182SOL    HW2  728   2.813   1.082   1.553  0.9654  1.0118  1.0069
  183SOL     OW  729   2.623   0.989   3.260  0.3407  0.4883 -0.6471
  183SOL    HW1  730   2.544   0.952   3.306  0.2087 -1.3639 -2.2463
  183SOL    HW2  731   2.622   1.089   3.268 -1.1490  0.3859  0.8772
  184SOL     OW  732   3.763   2.346   0.040  0.2894 -0.5112 -0.0938
  184SOL    HW1  733   3.685   2.407   0.049  1.2523  1.3469 -2.8823
  184SOL    HW2  734   3.836   2.376   0.102 -0.4520 -1.0066  1.0391
  185SOL     OW  735   2.636   3.076   0.837 -0.5916  0.0625 -0.3459
  185SOL    HW1  736   2.602   3.146   0.899 -0.0582 -0.6020  0.7090
  185SOL    HW2  737   2.559   3.023   0.802 -1.0585  1.4542 -1.5521
  186SOL     OW  738   1.945   3.164   2.415  0.0042  0.4273  0.7128
  186SOL    HW1  739   2.039   3.197   2.411 -0.0666  0.5216 -2.1437
  186SOL    HW2  740   1.883   3.243   2.420  0.0126  0.4898 -0.0931
  187SOL     OW  741   1.517   2.747   0.985  0.9231  0.5949  0.0321
  187SOL    HW1  742   1.571   2.734   1.068 -1.2544 -1.2107  1.2832
  187SOL    HW2  743   1.430   2.790   1.008 -0.1476 -0.8373 -1.1114
  188SOL     OW  744   1.495   1.485   0.385 -0.3440  0.0748  0.1123
  188SOL    HW1  745   1.563   1.519   0.320  0.1980  1.6191  1.4165
  188SOL    HW2  746   1.540   1.461   0.471 -1.1613 -1.1106  0.2408
  189SOL     OW  747   1.378   1.218   3.932 -0.0785 -0.1651  0.3100
  189SOL    HW1  748   1.369   1.135   3.986  0.4722  0.3744  1.2605
  189SOL    HW2  749   1.365   1.298   3.992  2.9421  0.5107  0.1900
  190SOL     OW  750   2.389   0.162   1.834 -0.0290 -0.0647 -0.0029
  190SOL    HW1  751   2.349   0.169   1.743 -0.2011 -3.4810 -0.3394
  190SOL    HW2  752   2.482   0.198   1.833  0.5674 -1.4854 -2.0284
  191SOL     OW  753   3.021   2.337   3.633 -0.0745 -0.0359  0.0890
  191SOL    HW1  754   3.102   2.314   3.687  0.9717  0.3831 -1.2186
  191SOL    HW2  755   3.021   2.435   3.614  0.3137 -0.3474 -1.7133
  192SOL     OW  756   4.045   3.110   2.101  0.1095  0.1175 -1.0322
  192SOL    HW1  757   4.003   3.020   2.094  0.2862  0.0330 -1.0240
  192SOL    HW2  758   4.105   3.112   2.181  1.1685 -0.2001 -1.7932
  193SOL     OW  759   0.864   3.610   1.465 -0.1244  0.0700  0.0706
  193SOL    HW1  760   0.894   3.631   1.372  0.0671  0.1642  0.1510
  193SOL    HW2  761   0.916   3.531   1.498 -0.2387 -0.0030  0.0728
  194SOL     OW  762   4.176   1.317   1.500 -0.3791  0.1681 -0.1082
  194SOL    HW1  763   4.184   1.386   1.572 -2.0015 -0.5218  0.7783
  194SOL    HW2  764   4.220   1.352   1.417  3.2596  0.2356  1.6488
  195SOL     OW  765   2.765   0.151   2.517  0.3824 -0.1571  0.1042
  195SOL    HW1  766   2.720   0.106   2.439  0.2299 -0.7735  0.5325
  195SOL    HW2  767   2.697   0.164   2.590  0.5593  0.2798  0.1926
  196SOL     OW  768   3.398   2.033   1.350  0.0186 -0.2065 -0.1511
  196SOL    HW1  769   3.385   2.108   1.414 -0.5814 -1.1390  0.8627
  196SOL    HW2  770   3.407   2.069   1.258 -2.7379  1.0316 -0.0392
  197SOL     OW  771   2.408   0.847   3.396 -0.4502  0.3795  0.0065
  197SOL    HW1  772   2.411   0.765   3.339 -3.0633  0.1046  0.1644
  197SOL    HW2  773   2.366   0.825   3.484  1.3154  1.3412  1.1581
  198SOL     OW  774   3.729   3.049   3.714  0.3987  0.0611  0.6509
  198SOL    HW1  775   3.797   3.005   3.657  0.0870 -0.2610  0.5246
  198SOL    HW2  776   3.775   3.108   3.780  0.7774  0.1601  0.3032
  199SOL     OW  777   4.028   2.645   4.013 -0.9106 -0.7372 -0.4168
  199SOL    HW1  778   3.979   2.724   3.977 -1.4336 -0.7471  0.2585
  199SOL    HW2  779   3.997   2.562   3.967  0.4564 -0.4425 -1.9458
  200SOL     OW  780   3.766   2.763   1.382 -0.8195  0.5503 -0.0982
  200SOL    HW1  781   3.859   2.796   1.399 -1.8157  2.9313  1.2872
  200SOL    HW2  782   3.724   2.818   1.310 -0.6316 -1.7180 -2.0671
  201SOL     OW  783   0.205   2.317   3.842  0.6732  0.2043  0.2056
  201SOL    HW1  784   0.113   2.303   3.879  0.2028 -1.6426 -1.5437
  201SOL    HW2  785   0.271   2.311   3.917 -0.4343 -0.8157  1.1476
  202SOL     OW  786   2.448   1.299   2.380 -0.1273  0.3130 -0.4563
  202SOL    HW1  787   2.543   1.274   2.364  0.4637  2.2945 -0.2536
  202SOL    HW2  788   2.414   1.247   2.459  1.0000  0.0885 -0.0980
  203SOL     OW  789   1.754   2.951   0.355  0.1005 -0.4316  0.0159
  203SOL    HW1  790   1.707   3.039   0.359  0.5264 -0.2351  2.7666
  203SOL    HW2  791   1.841   2.962   0.308  0.2030  0.6565  0.4373
  204SOL     OW  792   3.706   2.777   0.374  0.2319  0.1515 -0.6684
  204SOL    HW1  793   3.748   2.853   0.424 -0.7332  0.4100 -0.2230
  204SOL    HW2  794   3.777   2.717   0.339  1.0059  1.1483 -0.8418
  205SOL     OW  795   1.447   2.311   0.547  0.0566  0.1330 -0.3501
  205SOL    HW1  796   1.455   2.265   0.458 -0.6345 -1.2982  0.2903
  205SOL    HW2  797   1.502   2.262   0.614  1.3712  1.7879 -0.1663
  206SOL     OW  798   0.708   2.806   1.184 -0.9008 -0.2082 -0.0951
  206SOL    HW1  799   0.739   2.886   1.236  1.9084 -1.6041  0.5464
  206SOL    HW2  800   0.675   2.736   1.247 -1.3547 -0.3633 -0.4952
  207SOL     OW  801   1.988   3.878   2.270  0.1456  0.0872 -0.1874
  207SOL    HW1  802   2.066   3.856   2.211 -1.7055 -2.3327 -1.9467
  207SOL    HW2  803   1.949   3.966   2.241  0.2103 -0.3247 -1.6299
  208SOL     OW  804   2.284   2.566   0.289 -0.5499  0.7804  0.1582
  208SOL    HW1  805   2.364   2.625   0.295 -0.5638  0.6393  2.3365
  208SOL    HW2  806   2.201   2.622   0.298 -0.6615  0.7129 -0.3799
  209SOL     OW  807   1.536   3.790   1.156 -0.1244 -0.3377  0.2650
  209SOL    HW1  808   1.512   3.820   1.063  0.1084  1.9163  0.8727
  209SOL    HW2  809   1.615   3.842   1.188 -1.2507  0.2162  2.3513
  210SOL     OW  810   1.094   3.269   3.186 -0.5480 -0.0064 -0.1885
  210SOL    HW1  811   1.051   3.353   3.217 -1.5338 -1.2299  2.0503
  210SOL    HW2  812   1.023   3.206   3.153 -0.6128 -1.7660  2.8526
  211SOL     OW  813   1.334   1.795   0.038  0.9654  0.4766  0.2821
  211SOL    HW1  814   1.304   1.793  -0.058 -0.7324 -0.6397  0.7778
  211SOL    HW2  815   1.312   1.707   0.081  0.4843  1.3929  2.0251
  212SOL     OW  816   3.800   1.519   2.370 -0.3693  0.0816  0.5683
  212SOL    HW1  817   3.832   1.521   2.464  1.8980 -0.3172 -0.1465
  212SOL    HW2  818   3.860   1.460   2.315 -0.8082  1.3619 -1.4012
  213SOL     OW  819   2.711   1.218   0.662 -0.3352 -0.2796 -0.3047
  213SOL    HW1  820   2.742   1.132   0.622 -0.1521  0.0898 -0.9746
  213SOL    HW2  821   2.684   1.280   0.589 -1.1790 -0.0270  0.1980
  214SOL     OW  822   2.181   1.980   3.455  0.6983  0.6337 -0.0200
  214SOL    HW1  823   2.185   2.060   3.395  0.1633 -0.0875 -1.0558
  214SOL    HW2  824   2.088   1.945   3.459  0.6102  0.9668  1.6907
  215SOL     OW  825   1.113   1.864   0.186  0.1555 -0.0529 -0.4502
  215SOL    HW1  826   1.067   1.777   0.168  0.2543  0.0180 -1.0748
  215SOL    HW2  827   1.209   1.856   0.159 -0.2040  0.7549 -2.1077
  216SOL     OW  828   4.179   3.098   3.166  0.0332 -0.0198 -0.3188
  216SOL    HW1  829   4.120   3.142   3.099  1.1508  2.7588  0.3708
  216SOL    HW2  830   4.263   3.067   3.122  0.1370  0.4608 -0.4575
  217SOL     OW  831   1.272   3.231   2.568 -0.1173 -1.1861  0.0087
  217SOL    HW1  832   1.213   3.275   2.636  0.3676  2.3239 -1.6350
  217SOL    HW2  833   1.347   3.185   2.615  0.2415  1.1536  1.9174
  218SOL     OW  834   2.669   0.077   2.280  0.3402  0.4621  0.1412
  218SOL    HW1  835   2.633  -0.013   2.306  0.4102  0.4053  0.0405
  218SOL    HW2  836   2.697   0.075   2.184  1.1630  0.3226  0.3739
  219SOL     OW  837   1.115   1.733   2.696 -0.1502  0.1117  0.4060
  219SOL    HW1  838   1.078   1.769   2.782 -1.1462  1.7289 -0.6430
  219SOL    HW2  839   1.049   1.749   2.623  0.7806 -1.0183 -0.7279
  220SOL     OW  840   1.988   3.931   0.337  0.0944 -0.1207  0.2445
  220SOL    HW1  841   2.007   3.882   0.252  1.0199  0.1052  0.3118
  220SOL    HW2  842   2.035   4.019   0.335  0.4302 -0.2709  1.1442
  221SOL     OW  843   1.477   3.841   0.884 -0.0184 -0.0948  0.1340
  221SOL    HW1  844   1.448   3.931   0.918 -0.0233  0.3840 -1.1086
  221SOL    HW2  845   1.548   3.853   0.816  0.8593 -1.1149  0.8335
  222SOL     OW  846   0.813   1.707   2.793  0.6827  0.7667 -0.1007
  222SOL    HW1  847   0.844   1.739   2.882 -1.3909  3.6266 -0.2998
  222SOL    HW2  848   0.834   1.776   2.724  0.1317 -0.3593 -1.4485
  223SOL     OW  849   3.712   2.062   3.265 -0.4225 -0.1492  0.5850
  223SOL    HW1  850   3.729   2.150   3.309  0.9847 -0.6289  1.0731
  223SOL    HW2  851   3.672   2.077   3.174  0.2272  1.0176  0.4766
  224SOL     OW  852   2.604   3.136   0.416  0.2272 -0.2760  1.0375
  224SOL    HW1  853   2.544   3.188   0.477 -0.0141 -1.1507  1.5730
  224SOL    HW2  854   2.629   3.049   0.461 -1.2598 -1.6957 -0.7351
  225SOL     OW  855   3.268   0.890   3.742  0.1777 -0.3285  0.1193
  225SOL    HW1  856   3.361   0.907   3.774 -0.1127  1.0972  0.2461
  225SOL    HW2  857   3.266   0.896   3.642 -0.0895  1.3951  0.2032
  226SOL     OW  858   0.185   3.189   2.153 -0.5106 -0.3504  0.3515
  226SOL    HW1  859   0.277   3.194   2.191 -0.4798  1.3104  0.1099
  226SOL    HW2  860   0.162   3.275   2.109 -1.6501 -1.2380 -0.8775
  227SOL     OW  861   2.373   0.599   1.768 -0.1075 -0.4535  0.6519
  227SOL    HW1  862   2.433   0.548   1.829  2.0177  0.2834 -0.7232
  227SOL    HW2  863   2.356   0.544   1.686 -0.3384 -0.1716  0.5094
  228SOL     OW  864   2.934   2.769   0.478 -0.0044 -0.1659  0.5191
  228SOL    HW1  865   2.973   2.808   0.395 -1.8684  1.8450  0.5115
  228SOL    HW2  866   2.974   2.815   0.558 -0.1493 -0.2386  0.6327
  229SOL     OW  867   3.982   3.097   1.678  0.0806 -0.6473 -0.1195
  229SOL    HW1  868   4.002   3.194   1.665  2.1120 -0.1938  4.5185
  229SOL    HW2  869   3.884   3.085   1.692 -0.0472  0.9436  0.5015
  230SOL     OW  870   0.217   2.247   3.581 -0.3121 -0.3676 -0.0833
  230SOL    HW1  871   0.269   2.161   3.581  2.5465  1.2240  0.3316
  230SOL    HW2  872   0.219   2.287   3.672  0.7520  1.3976 -0.8197
  231SOL     OW  873   2.139   0.186   1.888 -0.1000  0.3089 -0.1990
  231SOL    HW1  874   2.101   0.171   1.796 -0.1778 -0.8642  0.0135
  231SOL    HW2  875   2.239   0.191   1.882 -0.1669  2.0227 -0.5682
  232SOL     OW  876   3.858   3.142   1.270 -0.0402  0.1014 -0.3891
  232SOL    HW1  877   3.932   3.141   1.336 -0.8958  2.3814  0.6998
  232SOL    HW2  878   3.791   3.071   1.294  1.3741 -1.5338 -1.0111
  233SOL     OW  879   2.003   2.630   0.315 -0.2152  0.0634  0.0445
  233SOL    HW1  880   1.946   2.549   0.305  1.3366 -0.9610 -0.7201
  233SOL    HW2  881   1.992   2.688   0.235  0.6345 -0.6823 -0.6287
  234SOL     OW  882   1.263   3.266   1.380  0.0135 -0.0570 -0.1700
  234SOL    HW1  883   1.360   3.265   1.404 -0.0083  0.0623 -0.0724
  234SOL    HW2  884   1.245   3.345   1.321 -0.5463  1.5982  2.0860
  235SOL     OW  885   0.196   2.579   3.237 -0.7046  0.2795  0.1036
  235SOL    HW1  886   0.250   2.646   3.186 -1.9139  2.1310  1.1855
  235SOL    HW2  887   0.251   2.545   3.314 -0.8364  1.6673  0.8240
  236SOL     OW  888   3.772   2.018   1.922  0.1620 -0.8397 -0.0058
  236SOL    HW1  889   3.782   1.964   1.838  0.5658 -0.6500 -0.0830
  236SOL    HW2  890   3.675   2.041   1.934  0.1410 -0.5696 -0.6165
  237SOL     OW  891   1.890   1.619   4.060  0.2400  0.2936  0.0349
  237SOL    HW1  892   1.956   1.602   3.987  0.8888  0.8421  0.4880
  237SOL    HW2  893   1.883   1.717   4.076  0.1648  0.1711  0.7754
  238SOL     OW  894   3.881   0.186   1.866  0.5441  0.0926 -0.7083
  238SOL    HW1  895   3.911   0.277   1.836 -0.7573  0.6239 -0.4609
  238SOL    HW2  896   3.873   0.126   1.786  1.6694  0.1086 -0.8391
  239SOL     OW  897   4.173   2.777   2.906  0.3088 -0.1311  0.0632
  239SOL    HW1  898   4.076   2.754   2.915  0.1475  0.8897  1.0799
  239SOL    HW2  899   4.191   2.806   2.812 -0.2877 -0.6403 -0.2207
  240SOL     OW  900   0.433   2.131   0.690  0.1180  0.2759  0.0586
  240SOL    HW1  901   0.366   2.203   0.710  0.1273  0.5842 -0.9496
  240SOL    HW2  902   0.513   2.173   0.645  0.0904 -0.3686 -0.6081
  241SOL     OW  903   2.961   4.246   2.551  0.2098 -0.6107  0.1711
  241SOL    HW1  904   2.903   4.185   2.606  0.8763 -0.1701  1.4001
  241SOL    HW2  905   2.905   4.321   2.516 -0.1948 -0.8086  0.3757
  242SOL     OW  906   3.864   2.975   0.478 -0.2918 -0.0343 -0.0367
  242SOL    HW1  907   3.923   3.040   0.431 -0.9797  1.1157  0.6582
  242SOL    HW2  908   3.911   2.943   0.560  0.7087 -1.6791 -1.1770
  243SOL     OW  909   1.188   3.265   2.824  0.1659  0.6633 -0.9449
  243SOL    HW1  910   1.226   3.312   2.904 -2.7522  1.5561  0.0474
  243SOL    HW2  911   1.159   3.173   2.851  2.5531 -0.4579 -1.9838
  244SOL     OW  912   4.192   1.506   1.680  0.2228 -0.1974 -0.6589
  244SOL    HW1  913   4.134   1.587   1.670 -0.5593 -0.1750  2.6220
  244SOL    HW2  914   4.287   1.534   1.686  0.1029  0.3197 -1.1378
  245SOL     OW  915   1.908   1.166   1.258  0.6856  0.3869 -0.2858
  245SOL    HW1  916   1.848   1.246   1.257  1.9068  1.3233 -0.5057
  245SOL    HW2  917   1.992   1.188   1.307  0.8804 -0.8927 -0.0058
  246SOL     OW  918   3.514   2.503   0.020 -0.0223 -0.1588 -0.4174
  246SOL    HW1  919   3.442   2.434   0.027 -0.4852  0.3449 -0.0977
  246SOL    HW2  920   3.513   2.559   0.103  1.9732 -1.3124  0.4430
  247SOL     OW  921   0.942   1.698   1.910 -0.3013 -0.0618 -0.3054
  247SOL    HW1  922   1.007   1.651   1.971 -0.9622 -1.1849 -0.4532
  247SOL    HW2  923   0.932   1.646   1.826  0.6788  1.5410 -1.4568
  248SOL     OW  924   3.947   0.951   1.777  0.5136 -0.3528 -0.0193
  248SOL    HW1  925   4.006   1.000   1.713 -0.4142  0.5923 -0.1769
  248SOL    HW2  926   3.983   0.859   1.791  0.4613 -0.7725 -2.2978
  249SOL     OW  927   2.272   2.178   3.852  0.1735 -0.1264 -0.0313
  249SOL    HW1  928   2.362   2.136   3.843  0.0331 -0.3192 -0.5435
  249SOL    HW2  929   2.273   2.242   3.930  0.7488 -0.1237 -0.0392
  250SOL     OW  930   1.883   2.932   4.221 -0.5423 -0.0104  0.7721
  250SOL    HW1  931   1.897   2.961   4.126 -1.1378  0.1028  0.7159
  250SOL    HW2  932   1.804   2.980   4.258 -0.6200 -0.4436  1.1657
  251SOL     OW  933   1.211   1.460   2.580 -0.1097 -0.0952 -0.3909
  251SOL    HW1  934   1.220   1.395   2.657 -1.4757 -0.1739 -0.2747
  251SOL    HW2  935   1.150   1.534   2.607  0.6654  0.7352 -0.8746
  252SOL     OW  936   0.767   3.352   1.582  0.3213 -0.0957  0.1081
  252SOL    HW1  937   0.712   3.410   1.522  1.6421  1.1350  0.0440
  252SOL    HW2  938   0.729   3.356   1.675  0.4067  0.9234  0.1107
  253SOL     OW  939   0.192   1.766   2.319 -0.3869  0.0141  0.2172
  253SOL    HW1  940   0.226   1.782   2.411  0.1656 -0.7864  0.1607
  253SOL    HW2  941   0.209   1.671   2.293  1.9537  0.8575 -1.7088
  254SOL     OW  942   2.945   2.257   3.387 -0.1670 -0.2501 -0.4548
  254SOL    HW1  943   2.978   2.284   3.477 -1.2250 -0.5547  0.0439
  254SOL    HW2  944   2.896   2.333   3.345  2.9143  0.9889 -2.1557
  255SOL     OW  945   1.420   1.224   0.026 -0.8131  0.8612 -0.0062
  255SOL    HW1  946   1.395   1.229   0.123  0.7035  0.3205  0.4436
  255SOL    HW2  947   1.390   1.308  -0.020 -1.2741  1.2622  0.9923
  256SOL     OW  948   0.974   1.179   2.034  0.3766 -0.1459 -0.7201
  256SOL    HW1  949   1.062   1.224   2.019  0.9328 -0.7403  0.5710
  256SOL    HW2  950   0.940   1.144   1.946  1.2467  0.4121 -1.2969
  257SOL     OW  951   2.072   1.188   2.919 -0.4228 -0.0392 -0.7003
  257SOL    HW1  952   2.083   1.287   2.926  0.7106  0.0349 -2.6001
  257SOL    HW2  953   1.975   1.165   2.925 -0.5475  0.6227  4.4576
  258SOL     OW  954   2.067   1.505   0.157 -0.3697 -0.2669 -0.2065
  258SOL    HW1  955   1.991   1.461   0.206 -0.4469 -1.3527 -1.2657
  258SOL    HW2  956   2.052   1.496   0.059  0.0371  1.4561 -0.4573
  259SOL     OW  957   3.729   1.645   3.805  0.3754  0.6890  0.2542
  259SOL    HW1  958   3.805   1.601   3.758  0.1966  1.8938 -1.2356
  259SOL    HW2  959   3.739   1.632   3.903  1.2450 -1.1388 -0.0432
  260SOL     OW  960   1.924   3.568   0.610 -0.2634  0.0448  0.1619
  260SOL    HW1  961   1.982   3.569   0.692  0.3275 -0.5394 -0.2366
  260SOL    HW2  962   1.953   3.493   0.551  1.9330  2.6674 -2.4182
  261SOL     OW  963   2.304   0.600   1.249  0.3353  0.3913  0.3607
  261SOL    HW1  964   2.309   0.680   1.190 -3.7412  0.7094  0.1364
  261SOL    HW2  965   2.306   0.630   1.345  0.0622  0.6703  0.2826
  262SOL     OW  966   3.557   3.255   1.777 -0.3715  0.1929  0.2501
  262SOL    HW1  967   3.652   3.278   1.800 -0.0925 -0.7588  0.1242
  262SOL    HW2  968   3.498   3.331   1.801  0.4909  1.0108 -0.1362
  263SOL     OW  969   2.479   1.053   1.281 -0.3215  0.2142 -0.7618
  263SOL    HW1  970   2.439   0.982   1.339  0.7824  0.3046  0.1328
  263SOL    HW2  971   2.525   1.009   1.204 -1.3582  0.0708 -1.3181
  264SOL     OW  972   1.640   3.393   0.384 -0.2149  0.8197  0.2019
  264SOL    HW1  973   1.668   3.486   0.406  1.7789  0.2671  0.1736
  264SOL    HW2  974   1.716   3.345   0.340 -0.4839 -1.4456  2.0278
  265SOL     OW  975   2.421   3.684   1.766 -0.3559 -0.4945 -0.3458
  265SOL    HW1  976   2.407   3.778   1.736 -0.9751 -0.2909  0.5290
  265SOL    HW2  977   2.335   3.633   1.756 -0.2839 -0.7021  0.0595
  266SOL     OW  978   3.655   2.163   2.360  0.2487 -0.5870  0.3500
  266SOL    HW1  979   3.622   2.191   2.269  3.0443 -0.2658 -0.6471
  266SOL    HW2  980   3.658   2.063   2.364 -1.2330 -0.6527  0.6740
  267SOL     OW  981   2.727   4.253   2.017 -0.5668  0.3393 -0.0064
  267SOL    HW1  982   2.816   4.210   2.035 -0.4157  0.0752 -1.2752
  267SOL    HW2  983   2.716   4.265   1.918 -1.9111  0.4382  0.1368
  268SOL     OW  984   1.716   2.451   0.824  0.1866 -0.0698  0.2174
  268SOL    HW1  985   1.702   2.474   0.920 -0.2547  1.5526 -0.1954
  268SOL    HW2  986   1.631   2.468   0.774  0.2616 -1.3752 -0.3866
  269SOL     OW  987   2.175   4.129   0.323 -0.2694  0.5385  0.1278
  269SOL    HW1  988   2.189   4.228   0.321 -0.4740  0.5681  0.1612
  269SOL    HW2  989   2.264   4.084   0.334  0.0201  0.6461 -1.5456
  270SOL     OW  990   2.056   0.278   3.403 -0.5325  0.6147 -0.3474
  270SOL    HW1  991   2.144   0.319   3.428  0.1028  0.6781 -2.4445
  270SOL    HW2  992   1.990   0.350   3.383 -1.1186  0.5672  1.2611
  271SOL     OW  993   3.435   2.370   1.221 -0.0768  0.1019  0.3951
  271SOL    HW1  994   3.533   2.385   1.225  0.1133 -0.5099 -1.1083
  271SOL    HW2  995   3.417   2.282   1.175 -1.2886 -0.5834  2.0682
  272SOL     OW  996   1.668   1.564   0.181  0.3102  0.2010  0.3265
  272SOL    HW1  997   1.746   1.502   0.172 -0.0124  0.0302 -1.8244
  272SOL    HW2  998   1.700   1.652   0.214  0.9107 -0.7725  2.5368
  273SOL     OW  999   1.903   3.836   0.586 -0.1959 -0.0177 -0.2321
  273SOL    HW1 1000   1.925   3.852   0.489  0.9086  0.5426  0.0876
  273SOL    HW2 1001   1.930   3.743   0.611  2.1861  0.7168  0.2014
  274SOL     OW 1002   1.142   3.591   1.698  0.4934  0.2272 -0.4136
  274SOL    HW1 1003   1.074   3.652   1.739 -1.0568  0.0238 -2.4776
  274SOL    HW2 1004   1.094   3.519   1.646  2.3027 -1.0467 -0.3983
  275SOL     OW 1005   0.322   3.580   1.524  0.1979 -0.4570 -0.7749
  275SOL    HW1 1006   0.386   3.556   1.451  1.9417  2.5045 -0.4128
  275SOL    HW2 1007   0.262   3.654   1.492  0.0402 -0.0893  0.3190
  276SOL     OW 1008   1.114   3.417   3.832 -0.5633 -0.0428 -0.1046
  276SOL    HW1 1009   1.115   3.513   3.859 -2.9311  0.1562 -0.4725
  276SOL    HW2 1010   1.032   3.399   3.777  0.6421 -1.9319 -1.4190
  277SOL     OW 1011   1.111   1.298   0.819  0.8040  0.2327 -0.0976
  277SOL    HW1 1012   1.192   1.339   0.779  0.7500 -0.3151 -0.7772
  277SOL    HW2 1013   1.060   1.249   0.749  0.0563  0.2914  0.3876
  278SOL     OW 1014   3.809   2.662   2.161  0.1154  0.2541  0.6045
  278SOL    HW1 1015   3.782   2.579   2.113  2.1585  0.7823 -1.6433
  278SOL    HW2 1016   3.853   2.725   2.097 -0.1094  2.5161  2.5160
  279SOL     OW 1017   1.113   2.037   1.474 -0.7644  0.0981  0.2662
  279SOL    HW1 1018   1.180   1.964   1.487 -1.4213 -0.3219  1.4685
  279SOL    HW2 1019   1.070   2.027   1.385 -0.4241 -0.6169  0.1781
  280SOL     OW 1020   0.736   3.550   4.007 -0.0811 -0.3316  0.3067
  280SOL    HW1 1021   0.698   3.596   3.928  0.7449 -1.2287 -0.6413
  280SOL    HW2 1022   0.661   3.524   4.069 -0.5954  1.9589  0.7589
  281SOL     OW 1023   2.559   0.973   1.937  0.5315 -0.1516 -0.3144
  281SOL    HW1 1024   2.511   1.037   1.878 -0.2590 -1.5550 -1.2463
  281SOL    HW2 1025   2.606   1.023   2.009 -0.3508  1.4287 -0.8059
  282SOL     OW 1026   0.567   1.682   2.453 -0.2261  0.3082  0.5709
  282SOL    HW1 1027   0.645   1.623   2.432 -0.7091  0.7103 -2.9301
  282SOL    HW2 1028   0.529   1.656   2.542  2.2654 -1.6053  1.1905
  283SOL     OW 1029   4.131   1.007   3.410  0.1374  1.0048  0.3872
  283SOL    HW1 1030   4.162   1.083   3.353 -1.3257  1.9855  0.8338
  283SOL    HW2 1031   4.085   1.044   3.491  0.9562 -0.3624  1.5300
  284SOL     OW 1032   2.770   2.582   0.898  0.1430 -0.2865  0.1169
  284SOL    HW1 1033   2.785   2.681   0.904  0.8138 -0.3966  0.3154
  284SOL    HW2 1034   2.747   2.547   0.989  0.2645 -0.3703  0.1153
  285SOL     OW 1035   0.618   3.016   4.209  0.4040  0.0432 -0.3172
  285SOL    HW1 1036   0.694   3.035   4.271 -0.6143  1.8308  0.4734
  285SOL    HW2 1037   0.538   2.988   4.262  0.6378 -2.5202 -1.1872
  286SOL     OW 1038   3.492   3.348   2.542  0.4107 -0.3671  0.4619
  286SOL    HW1 1039   3.568   3.408   2.567  0.5284 -0.7280  0.9793
  286SOL    HW2 1040   3.504   3.259   2.586 -0.3623 -0.3989  0.6224
  287SOL     OW 1041   3.443   1.323   1.640  0.1050 -0.1398  0.7061
  287SOL    HW1 1042   3.396   1.244   1.679  0.2130 -1.5496 -1.7791
  287SOL    HW2 1043   3.532   1.295   1.606  0.5099  1.2712  0.5333
  288SOL     OW 1044   1.379   4.076   2.056  0.5429 -0.1839  0.0958
  288SOL    HW1 1045   1.451   4.098   2.122  1.1924  0.2300 -0.7200
  288SOL    HW2 1046   1.291   4.106   2.092  0.7109 -1.0893  1.2976
  289SOL     OW 1047   1.148   1.657   3.471 -0.3569 -0.0546 -0.4454
  289SOL    HW1 1048   1.159   1.689   3.376 -0.8967  1.6613  0.0214
  289SOL    HW2 1049   1.222   1.595   3.494  0.8149  0.9349 -1.4399
  290SOL     OW 1050   1.523   2.931   4.008 -0.4108 -0.0940  0.0088
  290SOL    HW1 1051   1.446   2.917   3.945 -0.1823 -1.0507 -0.0683
  290SOL    HW2 1052   1.491   2.916   4.102 -0.3355 -0.4492 -0.0201
  291SOL     OW 1053   2.806   2.498   1.697 -0.4401 -0.6957 -0.1778
  291SOL    HW1 1054   2.750   2.525   1.775 -0.5433 -1.7249  0.1206
  291SOL    HW2 1055   2.753   2.437   1.638  0.5556 -2.2993  0.5038
  292SOL     OW 1056   0.797   1.630   3.758 -0.6625  0.5779 -0.6336
  292SOL    HW1 1057   0.869   1.692   3.726 -1.3984  1.4457 -0.6640
  292SOL    HW2 1058   0.739   1.679   3.823 -0.7142 -0.3817  0.0692
  293SOL     OW 1059   1.810   1.414   1.353 -0.1890  0.1812 -0.0547
  293SOL    HW1 1060   1.796   1.482   1.281 -1.5982 -0.2996 -0.2555
  293SOL    HW2 1061   1.903   1.423   1.388  0.0320  1.4223 -0.8886
  294SOL     OW 1062   3.918   2.505   2.585  0.0386  0.0176 -0.0441
  294SOL    HW1 1063   3.903   2.575   2.655 -2.5488 -0.6253  0.1363
  294SOL    HW2 1064   3.996   2.448   2.612  0.3299  0.9844  1.2829
  295SOL     OW 1065   1.425   1.571   3.569  0.4873  0.4893 -0.3634
  295SOL    HW1 1066   1.388   1.492   3.618 -0.6076  0.8380 -0.6045
  295SOL    HW2 1067   1.488   1.620   3.629  1.1974 -0.5764 -0.2239
  296SOL     OW 1068   0.685   1.596   0.154  0.5126 -0.3633 -0.0516
  296SOL    HW1 1069   0.613   1.542   0.110  0.6960 -1.9273  1.5103
  296SOL    HW2 1070   0.650   1.688   0.171 -1.4075 -1.2844  1.2977
  297SOL     OW 1071   2.725   2.928   0.566  0.3835  0.4346 -0.5907
  297SOL    HW1 1072   2.783   2.867   0.512  1.3792  1.4958 -0.7521
  297SOL    HW2 1073   2.662   2.874   0.621  1.3491 -0.7294 -0.6113
  298SOL     OW 1074   0.537   3.259   0.897  0.0636  0.3234 -0.1561
  298SOL    HW1 1075   0.615   3.200   0.921 -0.1455  0.0014 -0.2624
  298SOL    HW2 1076   0.571   3.350   0.876  0.5074 -0.0251 -0.9969
  299SOL     OW 1077   2.609   0.423   1.538 -0.0317 -0.2278  0.0878
  299SOL    HW1 1078   2.512   0.427   1.515  0.3766 -1.5006 -2.0149
  299SOL    HW2 1079   2.662   0.469   1.467  0.8499  2.6232  2.3672
  300SOL     OW 1080   3.749   1.946   3.745  0.1332 -0.8621 -0.1428
  300SOL    HW1 1081   3.753   1.849   3.769  0.8238 -1.2959 -1.8335
  300SOL    HW2 1082   3.701   1.956   3.658  1.3837  0.1206 -0.7547
  301SOL     OW 1083   0.404   3.326   3.677 -0.7718 -0.4515  0.3851
  301SOL    HW1 1084   0.427   3.253   3.613  1.8086 -0.4043  1.1519
  301SOL    HW2 1085   0.399   3.413   3.627  1.0519 -0.4395  0.1645
  302SOL     OW 1086   0.960   3.808   1.813 -0.5881  0.0638 -0.0759
  302SOL    HW1 1087   0.866   3.811   1.779 -0.6283  0.2475  0.0461
  302SOL    HW2 1088   1.008   3.891   1.785 -0.2257 -0.3795 -0.8008
  303SOL     OW 1089   2.950   3.059   2.129 -0.3825  0.1824 -0.4929
  303SOL    HW1 1090   2.974   3.072   2.032 -1.9211 -0.8352 -1.0533
  303SOL    HW2 1091   2.963   3.146   2.177  3.2964  0.0299 -0.8725
  304SOL     OW 1092   2.240   2.856   1.867 -0.4777  0.2200  0.3299
  304SOL    HW1 1093   2.141   2.851   1.850 -0.3754  1.3001 -0.6767
  304SOL    HW2 1094   2.289   2.844   1.780  0.3130 -0.9376  0.9118
  305SOL     OW 1095   0.971   3.401   0.209  0.2582 -0.2685 -0.8193
  305SOL    HW1 1096   1.029   3.329   0.171  2.0667 -0.1134  1.4333
  305SOL    HW2 1097   0.878   3.365   0.222  1.1312 -2.2678  0.3239
  306SOL     OW 1098   3.132   2.189   1.127 -0.3204  0.7612  0.3927
  306SOL    HW1 1099   3.106   2.228   1.215  2.1239  3.3560  0.0929
  306SOL    HW2 1100   3.078   2.231   1.055 -3.2405 -2.2701  0.5652
  307SOL     OW 1101   2.064   1.582   3.847  0.9482  0.8720 -0.7434
  307SOL    HW1 1102   2.057   1.488   3.816 -1.5302  1.1810 -1.3728
  307SOL    HW2 1103   2.156   1.600   3.881  1.3564 -1.8583 -0.2537
  308SOL     OW 1104   0.953   3.673   0.101 -0.0614  0.8479  0.1140
  308SOL    HW1 1105   0.997   3.743   0.158 -1.0465  1.2313  0.4150
  308SOL    HW2 1106   0.970   3.583   0.140  1.3660  0.8729 -0.3675
  309SOL     OW 1107   0.033   2.633   4.082 -0.0221 -0.1585 -0.4327
  309SOL    HW1 1108   0.034   2.715   4.140  0.2549 -0.2266 -0.3393
  309SOL    HW2 1109  -0.059   2.621   4.044  0.3168  1.0892 -1.7166
  310SOL     OW 1110   4.137   2.292   4.190 -0.2663 -0.4707 -0.2786
  310SOL    HW1 1111   4.080   2.211   4.206 -1.3084  0.5352  1.3477
  310SOL    HW2 1112   4.234   2.266   4.200 -0.6154 -1.3489  1.1952
  311SOL     OW 1113   2.774   1.436   3.495  0.0873  0.2477  0.3974
  311SOL    HW1 1114   2.873   1.419   3.501 -0.0256 -1.3133 -1.4356
  311SOL    HW2 1115   2.757   1.503   3.423 -0.1746  1.2074  1.3153
  312SOL     OW 1116   1.180   0.932   2.085 -0.1797  0.1730  0.1203
  312SOL    HW1 1117   1.096   0.896   2.045 -1.2722  2.2420  0.4253
  312SOL    HW2 1118   1.179   0.919   2.184  1.0559 -2.0436 -0.1007
  313SOL     OW 1119   2.154   0.408   1.091  0.2624  0.3851 -0.2758
  313SOL    HW1 1120   2.197   0.472   1.154  0.2780  0.8255 -0.7238
  313SOL    HW2 1121   2.209   0.325   1.085 -0.4344 -0.2414  1.3169
  314SOL     OW 1122   0.965   3.686   4.086  0.1104 -0.2757  0.1661
  314SOL    HW1 1123   0.978   3.684   4.185 -0.5846 -1.1379  0.2517
  314SOL    HW2 1124   0.898   3.616   4.060  0.8955 -0.6295 -1.0026
  315SOL     OW 1125   2.145   4.146   1.246 -0.4824  0.0600  0.8284
  315SOL    HW1 1126   2.226   4.202   1.263  0.3105 -1.6323  3.1150
  315SOL    HW2 1127   2.079   4.160   1.320 -0.9571 -0.8106  0.5855
  316SOL     OW 1128   3.470   2.554   3.519 -0.2059 -0.0386  0.2179
  316SOL    HW1 1129   3.569   2.548   3.528 -0.1838  0.8307  0.6814
  316SOL    HW2 1130   3.428   2.475   3.564  0.3166 -1.3267 -1.4476
  317SOL     OW 1131   1.058   0.505   3.500  0.3803  0.0992  0.0228
  317SOL    HW1 1132   1.112   0.449   3.436  0.2432  1.6072 -1.4813
  317SOL    HW2 1133   0.963   0.476   3.496  0.6685 -1.1308  1.0845
  318SOL     OW 1134   3.245   3.296   3.383 -0.2529  0.3896 -0.6901
  318SOL    HW1 1135   3.174   3.362   3.358 -0.2350  0.8514  0.4326
  318SOL    HW2 1136   3.335   3.338   3.373 -0.2962  1.2301  1.8221
  319SOL     OW 1137   2.686   1.784   3.374 -0.3668  0.6332  0.7935
  319SOL    HW1 1138   2.747   1.859   3.347 -0.0531  0.5438  1.2533
  319SOL    HW2 1139   2.725   1.697   3.343 -1.1439  0.7127 -0.4906
  320SOL     OW 1140   3.930   2.150   3.797  0.1634  0.2201  0.8156
  320SOL    HW1 1141   3.866   2.088   3.751 -0.3582  0.8414  0.6922
  320SOL    HW2 1142   3.956   2.110   3.885  0.9668 -0.8576  0.1130
  321SOL     OW 1143   2.895   0.237   0.757  0.4658 -0.2043 -0.1532
  321SOL    HW1 1144   2.952   0.215   0.836 -0.8234 -0.7817  0.6541
  321SOL    HW2 1145   2.918   0.174   0.682  1.2820 -0.0439 -0.0451
  322SOL     OW 1146   1.939   0.394   2.796  0.2919  0.8824  0.0516
  322SOL    HW1 1147   1.869   0.434   2.738  1.9167  1.3683 -1.6964
  322SOL    HW2 1148   2.026   0.442   2.781  1.1290 -0.0122  1.7433
  323SOL     OW 1149   1.656   3.519   4.220 -0.1552  0.6263 -0.2970
  323SOL    HW1 1150   1.613   3.462   4.289  2.3693 -2.5091 -1.0758
  323SOL    HW2 1151   1.594   3.531   4.143 -0.9553 -0.5916  0.1361
  324SOL     OW 1152   2.885   1.910   1.138 -0.6884  0.0599  0.0520
  324SOL    HW1 1153   2.883   1.961   1.052 -0.9549  1.1549  0.6828
  324SOL    HW2 1154   2.907   1.973   1.213  2.5592 -1.3850  0.4499
  325SOL     OW 1155   0.934   2.438   1.227 -0.3043 -0.0966 -0.3814
  325SOL    HW1 1156   0.984   2.394   1.303 -1.8691 -3.2568 -1.0112
  325SOL    HW2 1157   0.849   2.388   1.211 -1.7356  2.6622 -1.9771
  326SOL     OW 1158   2.583   2.746   3.107  0.5570  0.1002  0.1761
  326SOL    HW1 1159   2.527   2.663   3.109  0.0967  0.1646 -3.4977
  326SOL    HW2 1160   2.678   2.721   3.090  0.9427  0.2392  1.9587
  327SOL     OW 1161   3.737   0.580   0.969  0.2496 -0.1755 -0.0761
  327SOL    HW1 1162   3.659   0.605   1.027 -0.1200 -0.6182 -0.3770
  327SOL    HW2 1163   3.763   0.486   0.989  2.2125  0.6659  1.7128
  328SOL     OW 1164   2.265   2.365   0.463 -0.8068  0.0081  0.3959
  328SOL    HW1 1165   2.231   2.287   0.409 -1.8462  0.1722  0.7855
  328SOL    HW2 1166   2.268   2.446   0.404  0.4976 -0.3579 -0.0718
  329SOL     OW 1167   3.028   2.880   2.330  0.1963  0.5551 -0.0687
  329SOL    HW1 1168   3.018   2.940   2.252 -1.6255  0.7045  0.2441
  329SOL    HW2 1169   3.125   2.856   2.341  0.6460  1.5786 -1.5465
  330SOL     OW 1170   2.056   4.109   0.971  0.3802  0.4577 -0.1796
  330SOL    HW1 1171   2.091   4.145   1.057  1.5643 -2.8459  0.8959
  330SOL    HW2 1172   1.967   4.066   0.988 -0.0539  1.0245 -0.9557
  331SOL     OW 1173   2.117   3.754   1.845 -0.5204  0.3906  0.1951
  331SOL    HW1 1174   2.160   3.826   1.791  0.7265 -0.7730 -0.4457
  331SOL    HW2 1175   2.137   3.666   1.802 -0.3224 -0.5026  2.0245
  332SOL     OW 1176   1.250   0.446   0.730  0.1000  0.1528 -0.0974
  332SOL    HW1 1177   1.328   0.509   0.724 -0.1930  0.4786 -0.6042
  332SOL    HW2 1178   1.212   0.450   0.822  1.1608 -0.5956  0.3883
  333SOL     OW 1179   3.067   2.946   1.288 -0.2654 -0.3038  0.5981
  333SOL    HW1 1180   3.158   2.985   1.296 -0.8169  1.0851  0.4434
  333SOL    HW2 1181   3.005   2.996   1.349 -1.4847  0.6869 -1.3525
  334SOL     OW 1182   0.931   2.674   0.818  0.4209  0.3249  0.3264
  334SOL    HW1 1183   0.979   2.662   0.905 -0.4471  0.0315  0.7727
  334SOL    HW2 1184   0.968   2.609   0.751  0.0267 -0.5547  0.9367
  335SOL     OW 1185   1.225   1.529   0.683 -0.0371  0.4319  0.2157
  335SOL    HW1 1186   1.239   1.516   0.585 -0.0568  0.7021  0.1762
  335SOL    HW2 1187   1.134   1.568   0.698 -0.1062  0.2192  0.3552
  336SOL     OW 1188   1.740   3.336   2.448 -0.0697 -0.3801 -0.2224
  336SOL    HW1 1189   1.698   3.255   2.406 -1.0884  0.1659 -0.2811
  336SOL    HW2 1190   1.697   3.418   2.411 -0.2179  0.1403  1.0722
  337SOL     OW 1191   4.194   1.230   3.213  0.2120  0.6675 -0.1744
  337SOL    HW1 1192   4.134   1.153   3.192  0.9473  0.4717 -1.6278
  337SOL    HW2 1193   4.258   1.244   3.138  2.5718  0.3645  1.6456
  338SOL     OW 1194   3.626   3.747   3.212 -0.7378  0.3789 -0.1155
  338SOL    HW1 1195   3.593   3.833   3.171 -0.4851  1.0494  1.0419
  338SOL    HW2 1196   3.724   3.755   3.228 -1.0746  0.7839  2.0667
  339SOL     OW 1197   0.964   1.244   2.778 -0.0454  0.4191  0.1007
  339SOL    HW1 1198   0.894   1.175   2.758 -0.0851 -0.3075  2.4537
  339SOL    HW2 1199   0.932   1.333   2.744 -1.4599 -0.1430 -0.1425
  340SOL     OW 1200   1.643   0.300   1.168 -0.7026  0.2084  0.3183
  340SOL    HW1 1201   1.591   0.351   1.100 -0.5881 -0.0164  0.0586
  340SOL    HW2 1202   1.740   0.298   1.141  0.1600  3.5635  2.4879
  341SOL     OW 1203   3.638   4.258   1.038 -0.3708  0.0798 -0.0123
  341SOL    HW1 1204   3.555   4.212   1.006  1.1623 -2.0344 -1.2180
  341SOL    HW2 1205   3.650   4.239   1.136 -0.0737 -1.6674 -0.3598
  342SOL     OW 1206   1.531   1.596   3.318 -0.2871 -0.3591 -0.2690
  342SOL    HW1 1207   1.566   1.509   3.282  0.6841  0.0023 -0.2448
  342SOL    HW2 1208   1.484   1.579   3.404  1.0659 -0.7060  0.4237
  343SOL     OW 1209   0.901   2.027   2.062  0.2892 -0.1578  0.0278
  343SOL    HW1 1210   0.827   2.081   2.022  0.5797  0.7790  0.7227
  343SOL    HW2 1211   0.968   2.005   1.991  0.7085  1.3358 -0.0705
  344SOL     OW 1212   3.487   1.817   2.428 -0.3194  0.2521 -0.4177
  344SOL    HW1 1213   3.578   1.849   2.452 -1.1034  1.1376  1.6660
  344SOL    HW2 1214   3.475   1.723   2.460 -0.3529  0.3986  0.0224
  345SOL     OW 1215   0.625   2.582   1.342 -0.8517  0.0743 -0.1644
  345SOL    HW1 1216   0.557   2.544   1.279  0.3720 -1.8370 -0.4247
  345SOL    HW2 1217   0.712   2.535   1.328 -0.2524  0.3627  2.2075
  346SOL     OW 1218   1.308   2.300   0.937  0.6482  0.4247 -0.2000
  346SOL    HW1 1219   1.285   2.303   0.840 -0.7046 -0.6065  0.0626
  346SOL    HW2 1220   1.306   2.393   0.974  2.4353  1.0158 -1.3845
  347SOL     OW 1221   0.001   3.243   1.497 -0.2175  0.1783 -0.2205
  347SOL    HW1 1222   0.009   3.333   1.456  1.2589  0.5653  0.8347
  347SOL    HW2 1223  -0.021   3.253   1.594 -0.4071 -0.6031 -0.1773
  348SOL     OW 1224   3.695   0.983   2.208 -0.6982  0.3551  0.2018
  348SOL    HW1 1225   3.701   1.071   2.161 -0.4121  0.9287  1.2762
  348SOL    HW2 1226   3.600   0.967   2.234 -0.7958  0.2178 -0.2482
  349SOL     OW 1227   3.598   3.783   3.711  0.8185  0.2579  0.1023
  349SOL    HW1 1228   3.509   3.739   3.725 -0.0424  2.0160  0.4066
  349SOL    HW2 1229   3.584   3.873   3.670  2.6477 -0.4567 -2.2993
  350SOL     OW 1230   1.519   3.309   0.111  0.2780 -0.3672  0.5391
  350SOL    HW1 1231   1.506   3.300   0.210  1.5519  0.6874  0.8280
  350SOL    HW2 1232   1.430   3.297   0.065 -0.0556 -2.6932  1.6307
  351SOL     OW 1233   3.781   3.962   0.883 -0.2016 -0.2307  0.3884
  351SOL    HW1 1234   3.778   4.057   0.851  0.5648  0.5879  2.5285
  351SOL    HW2 1235   3.739   3.903   0.815 -0.1540  1.5565 -1.2935
  352SOL     OW 1236   2.006   3.120   0.596 -0.4268  0.3230  0.5363
  352SOL    HW1 1237   2.099   3.098   0.624 -0.1754  0.0701 -0.4580
  352SOL    HW2 1238   1.952   3.036   0.595 -0.6777  0.4714  1.1229
  353SOL     OW 1239   2.142   2.817   0.996 -0.0705  0.2313  0.6928
  353SOL    HW1 1240   2.095   2.764   1.067 -0.6776  0.9078  0.8115
  353SOL    HW2 1241   2.227   2.771   0.971 -0.6148 -0.8167  0.7535
  354SOL     OW 1242   3.812   3.075   0.983  0.3345  0.3081 -0.1953
  354SOL    HW1 1243   3.901   3.079   0.939  0.1976 -2.4438 -0.9304
  354SOL    HW2 1244   3.823   3.089   1.082  1.7208 -0.7675 -0.1658
  355SOL     OW 1245   2.813   4.033   1.335 -0.2308 -0.4674 -0.3064
  355SOL    HW1 1246   2.874   3.954   1.334 -1.6408 -1.6062 -0.5313
  355SOL    HW2 1247   2.840   4.095   1.408 -0.1941 -2.0850  1.1276
  356SOL     OW 1248   1.379   1.944   3.130 -0.3719 -0.1717  0.3747
  356SOL    HW1 1249   1.348   2.019   3.072 -1.1835  0.3307  1.4317
  356SOL    HW2 1250   1.479   1.938   3.126 -0.2466  1.4189  0.8208
  357SOL     OW 1251   3.011   2.032   1.823 -0.4249 -0.3186 -0.3348
  357SOL    HW1 1252   2.979   2.049   1.917  2.3352  1.0679  0.4642
  357SOL    HW2 1253   2.998   2.115   1.769  0.2558 -0.2934 -0.4609
  358SOL     OW 1254   0.077   1.457   3.976  0.1955  0.2256  0.4229
  358SOL    HW1 1255   0.050   1.462   3.880  1.7806 -2.0844 -0.2154
  358SOL    HW2 1256   0.177   1.465   3.983  0.3695 -2.0650  1.5810
  359SOL     OW 1257   1.504   0.444   0.998 -0.1520  0.0562 -0.3705
  359SOL    HW1 1258   1.522   0.465   0.902 -1.6286  1.2551 -0.4284
  359SOL    HW2 1259   1.413   0.479   1.022  0.5659  0.6214  1.7170
  360SOL     OW 1260   3.670   2.671   1.841  0.4279 -0.0339 -0.0636
  360SOL    HW1 1261   3.657   2.577   1.873  0.3302 -0.0675 -0.2000
  360SOL    HW2 1262   3.586   2.723   1.858 -0.7738 -0.8380 -2.9886
  361SOL     OW 1263   1.762   2.174   3.642  0.1881 -0.1580 -0.5780
  361SOL    HW1 1264   1.816   2.159   3.559 -1.2874  0.3909 -1.6760
  361SOL    HW2 1265   1.774   2.268   3.672  4.1383 -1.3558  2.4397
  362SOL     OW 1266   2.287   0.172   1.571  0.0976  0.6887  0.1839
  362SOL    HW1 1267   2.193   0.196   1.546 -0.5127  0.3234  1.9573
  362SOL    HW2 1268   2.293   0.074   1.586  0.7369  0.7269  0.2102
  363SOL     OW 1269   2.292   2.362   4.061 -0.5476  0.0704  0.6239
  363SOL    HW1 1270   2.245   2.437   4.015 -1.4900 -0.0443  1.3791
  363SOL    HW2 1271   2.311   2.388   4.156 -0.2608 -0.3853  0.6935
  364SOL     OW 1272   3.392   1.811   3.302 -0.1575 -0.1335 -0.3460
  364SOL    HW1 1273   3.351   1.855   3.223  1.5467 -0.4375 -1.4497
  364SOL    HW2 1274   3.391   1.875   3.379  1.0653  1.4018 -1.5363
  365SOL     OW 1275   2.712   4.117   0.250 -0.2530 -0.3289  0.1875
  365SOL    HW1 1276   2.695   4.099   0.347 -1.5260 -0.1796  0.0050
  365SOL    HW2 1277   2.674   4.206   0.225  1.4597  0.3515 -0.1016
  366SOL     OW 1278   2.061   0.387   0.833 -0.2112  0.0488 -0.4260
  366SOL    HW1 1279   2.116   0.422   0.909  1.1741  0.1521 -1.4538
  366SOL    HW2 1280   2.043   0.290   0.847 -1.3497  0.3942  0.8158
  367SOL     OW 1281   0.474   3.083   1.312  0.1656 -0.3516  0.2124
  367SOL    HW1 1282   0.374   3.087   1.313  0.1681 -0.1813  0.0008
  367SOL    HW2 1283   0.504   2.996   1.350  0.0054  0.4713  2.3942
  368SOL     OW 1284   1.213   1.449   3.204  0.2754 -0.0900 -0.2791
  368SOL    HW1 1285   1.156   1.418   3.127  1.0054  2.0569 -1.7634
  368SOL    HW2 1286   1.217   1.376   3.272 -0.3764 -2.1139 -2.2641
  369SOL     OW 1287   1.649   1.206   4.140 -0.3851  0.4931 -0.3301
  369SOL    HW1 1288   1.573   1.206   4.205  0.4539 -3.2395  0.8525
  369SOL    HW2 1289   1.622   1.154   4.059  0.2469  0.8698 -0.7872
  370SOL     OW 1290   1.968   4.186   1.445 -0.6083  0.0300  0.1906
  370SOL    HW1 1291   1.945   4.281   1.424 -1.1279  0.1742  1.3539
  370SOL    HW2 1292   1.903   4.151   1.513 -1.0902 -1.5038 -1.0125
  371SOL     OW 1293   1.375   3.800   2.050  0.1809  0.1279  0.0873
  371SOL    HW1 1294   1.380   3.900   2.048 -1.2121  0.2292  0.5306
  371SOL    HW2 1295   1.279   3.772   2.060  0.4074 -1.2763 -1.2957
  372SOL     OW 1296   1.280   2.578   0.981 -0.5071 -0.3033 -0.3067
  372SOL    HW1 1297   1.204   2.608   1.039  1.0828  0.7583  1.3242
  372SOL    HW2 1298   1.333   2.658   0.952  1.6770 -1.1802  1.0431
  373SOL     OW 1299   2.313   1.856   3.636 -0.8733  0.5134  0.5195
  373SOL    HW1 1300   2.272   1.926   3.578  0.0449  0.9778  0.4072
  373SOL    HW2 1301   2.360   1.789   3.578  1.9338  2.1569  0.7027
  374SOL     OW 1302   1.474   1.601   3.949  0.3495 -0.2505 -0.4387
  374SOL    HW1 1303   1.549   1.588   4.013  0.2029 -0.3415 -0.2843
  374SOL    HW2 1304   1.507   1.588   3.856  0.9238  1.3446 -0.5022
  375SOL     OW 1305   2.826   2.763   2.158 -0.5733 -0.0369  0.6982
  375SOL    HW1 1306   2.765   2.836   2.126  2.2235  1.9018 -0.6503
  375SOL    HW2 1307   2.869   2.791   2.243  0.8316  0.1496 -0.0393
  376SOL     OW 1308   3.868   1.205   1.818 -0.1800 -0.1379 -0.3173
  376SOL    HW1 1309   3.879   1.107   1.801  0.9048  0.1792 -1.6296
  376SOL    HW2 1310   3.958   1.245   1.837 -0.3068  0.9359 -1.8268
  377SOL     OW 1311   0.106   1.855   3.564  0.3571 -0.6595  0.5470
  377SOL    HW1 1312   0.027   1.914   3.581  0.9565  0.2651  0.1798
  377SOL    HW2 1313   0.074   1.769   3.524 -0.6504 -1.1506  2.3076
  378SOL     OW 1314   1.419   1.882   3.404  0.1205 -0.0617  0.1290
  378SOL    HW1 1315   1.360   1.896   3.324 -0.2002  0.0416  0.3854
  378SOL    HW2 1316   1.471   1.798   3.392 -0.6410 -0.5524  0.2509
  379SOL     OW 1317   2.201   3.089   2.027  0.0597  0.0218  0.0118
  379SOL    HW1 1318   2.239   3.013   1.974 -0.0389 -0.8556  1.1739
  379SOL    HW2 1319   2.124   3.055   2.082  0.1626  0.9123  0.7204
  380SOL     OW 1320   3.493   3.125   2.859 -0.0947 -0.6101 -0.2584
  380SOL    HW1 1321   3.504   3.122   2.760 -0.1324 -0.6716 -0.2609
  380SOL    HW2 1322   3.396   3.131   2.882 -0.2121 -2.3391 -0.1962
  381SOL     OW 1323   3.533   3.469   3.030 -0.1710 -0.5436  0.2236
  381SOL    HW1 1324   3.450   3.451   2.976  0.5202 -0.9893 -0.7131
  381SOL    HW2 1325   3.538   3.567   3.049 -0.0995 -0.2654 -1.1067
  382SOL     OW 1326   2.245   3.098   0.956 -0.6433  0.8945  0.0156
  382SOL    HW1 1327   2.262   3.127   0.862  0.9343  0.2995  0.1029
  382SOL    HW2 1328   2.175   3.026   0.955  0.0771  0.1762 -0.8159
  383SOL     OW 1329   2.061   0.392   2.046  0.1835  0.1442 -0.0731
  383SOL    HW1 1330   2.086   0.310   1.995 -0.2435  0.5226 -0.9155
  383SOL    HW2 1331   2.130   0.463   2.030  0.4562  0.0159  0.5067
  384SOL     OW 1332   3.663   4.176   1.285  0.1253  0.6344  0.2757
  384SOL    HW1 1333   3.726   4.189   1.362  3.1944  0.2156 -2.0105
  384SOL    HW2 1334   3.652   4.078   1.267 -1.6731  0.6750  0.9381
  385SOL     OW 1335   3.105   3.374   3.076 -0.0117 -0.3593 -0.6486
  385SOL    HW1 1336   3.057   3.287   3.063  1.3301 -1.4647  1.2457
  385SOL    HW2 1337   3.067   3.420   3.156  0.6682 -0.2345 -0.3884
  386SOL     OW 1338   0.131   3.804   1.533 -0.6610  0.4097  0.0396
  386SOL    HW1 1339   0.149   3.874   1.464  0.2477  0.6516  0.5068
  386SOL    HW2 1340   0.134   3.846   1.624 -0.1831 -0.2257  0.3205
  387SOL     OW 1341   3.519   2.015   2.860 -0.2968 -1.1207 -0.2785
  387SOL    HW1 1342   3.555   2.084   2.924  0.0183 -0.0665 -1.5464
  387SOL    HW2 1343   3.429   2.044   2.827  0.6215 -0.2962 -2.2469
  388SOL     OW 1344   3.269   3.114   1.557  0.5069 -0.3972  0.5498
  388SOL    HW1 1345   3.355   3.092   1.603  0.3707 -0.4571  0.7755
  388SOL    HW2 1346   3.285   3.117   1.458  0.5540 -1.3921  0.5196
  389SOL     OW 1347   3.376   2.626   1.119 -0.3708  0.3190  0.2157
  389SOL    HW1 1348   3.383   2.677   1.205 -2.4068 -0.7908  1.1172
  389SOL    HW2 1349   3.384   2.528   1.138 -1.8692 -0.0031 -0.6880
  390SOL     OW 1350   0.948   3.361   3.632 -0.1678  0.4040  0.3760
  390SOL    HW1 1351   0.856   3.324   3.648  0.0260 -0.3476 -0.2413
  390SOL    HW2 1352   1.004   3.293   3.585  0.0942  1.5864 -1.0867
  391SOL     OW 1353   2.568   4.110   1.504 -0.0110 -0.1639 -0.7007
  391SOL    HW1 1354   2.581   4.048   1.427  0.4947 -0.9153 -0.0347
  391SOL    HW2 1355   2.582   4.204   1.474 -0.4342 -0.4013 -1.6535
  392SOL     OW 1356   1.048   0.527   3.782 -0.4517  0.0966 -0.1228
  392SOL    HW1 1357   0.950   0.517   3.799 -0.6110 -0.9630 -1.4541
  392SOL    HW2 1358   1.064   0.527   3.683  1.1605 -3.0933 -0.0009
  393SOL     OW 1359   3.239   0.709   2.632 -0.1928  0.0778  0.2572
  393SOL    HW1 1360   3.167   0.688   2.565  0.7265 -4.0161  0.2967
  393SOL    HW2 1361   3.326   0.720   2.584 -0.2885  2.1515  0.4641
  394SOL     OW 1362   3.777   1.144   2.402 -0.3750  0.0088 -0.1630
  394SOL    HW1 1363   3.727   1.075   2.350  0.4066 -0.5383 -0.2028
  394SOL    HW2 1364   3.852   1.179   2.346 -0.1877  0.2020  0.2037
  395SOL     OW 1365   0.492   1.591   2.724  0.5920  0.1132  0.2208
  395SOL    HW1 1366   0.452   1.665   2.778 -0.3115 -1.4514  1.7914
  395SOL    HW2 1367   0.544   1.530   2.784  1.5624 -0.3874 -1.0824
  396SOL     OW 1368   2.504   2.491   3.202  0.0152 -0.5718  0.2886
  396SOL    HW1 1369   2.541   2.541   3.280 -0.9781  2.2524 -0.8919
  396SOL    HW2 1370   2.470   2.402   3.232 -0.1211  0.3163  3.0239
  397SOL     OW 1371   3.877   0.746   2.521 -0.0471  0.2287  0.2646
  397SOL    HW1 1372   3.971   0.778   2.508  0.2739 -0.3331  1.1515
  397SOL    HW2 1373   3.879   0.657   2.567 -0.9355 -0.8314 -1.6136
  398SOL     OW 1374   1.059   0.699   3.976  0.5885 -0.1871 -0.5068
  398SOL    HW1 1375   1.067   0.792   3.942  0.5236 -0.2849 -0.7987
  398SOL    HW2 1376   1.060   0.636   3.899  0.3024 -0.4055 -0.3378
  399SOL     OW 1377   0.905   1.200   0.608 -0.2180 -0.3014 -0.1529
  399SOL    HW1 1378   0.950   1.195   0.519 -0.3404  0.2530 -0.2504
  399SOL    HW2 1379   0.857   1.287   0.616 -0.1123 -0.2937  0.5011
  400SOL     OW 1380   1.495   0.992   1.626  0.1855 -0.3030 -0.0932
  400SOL    HW1 1381   1.433   0.982   1.704 -1.3244  0.0419 -1.1944
  400SOL    HW2 1382   1.448   0.964   1.542  1.1967  0.8645 -1.1059
  401SOL     OW 1383   1.732   2.459   2.400 -0.3996 -0.2823  0.0558
  401SOL    HW1 1384   1.751   2.469   2.498 -0.8114  0.6738  0.0516
  401SOL    HW2 1385   1.818   2.446   2.351  0.0932  1.8625  0.2575
  402SOL     OW 1386   0.979   1.114   3.251 -0.0432  0.5373  0.9928
  402SOL    HW1 1387   1.049   1.066   3.304 -0.7086 -0.5060  0.9607
  402SOL    HW2 1388   0.908   1.049   3.225  0.4205  0.9170 -1.4994
  403SOL     OW 1389   3.112   2.673   3.201  0.1629  0.8552  0.3877
  403SOL    HW1 1390   3.070   2.754   3.242 -0.1288  0.3143  1.1820
  403SOL    HW2 1391   3.192   2.700   3.148  0.3241  1.6161  1.0138
  404SOL     OW 1392   3.838   4.241   3.952 -0.0470 -0.3294  0.5813
  404SOL    HW1 1393   3.815   4.311   3.883  1.4216  1.6841  2.0050
  404SOL    HW2 1394   3.791   4.156   3.929 -3.2048  1.5163 -0.4028
  405SOL     OW 1395   0.589   1.167   2.892  0.2319  0.3363 -0.0371
  405SOL    HW1 1396   0.503   1.194   2.848 -0.1405 -0.7570 -0.0257
  405SOL    HW2 1397   0.579   1.177   2.991 -0.1121 -0.3867  0.0060
  406SOL     OW 1398   1.755   2.723   1.168 -0.1807 -0.1767 -0.0027
  406SOL    HW1 1399   1.734   2.714   1.265 -0.9100  0.8193 -0.0528
  406SOL    HW2 1400   1.789   2.815   1.149 -0.6912 -0.1391 -0.8024
  407SOL     OW 1401   1.961   3.444   1.600  0.4426  0.0906  0.4778
  407SOL    HW1 1402   1.888   3.489   1.547  0.3385  1.6253  1.8369
  407SOL    HW2 1403   1.921   3.403   1.682  1.0609  0.9005  1.2058
  408SOL     OW 1404   0.817   1.334   3.672  0.3030  0.0074 -0.3449
  408SOL    HW1 1405   0.733   1.328   3.618  1.0225  0.1720 -1.5093
  408SOL    HW2 1406   0.820   1.423   3.719 -0.7507 -0.4906  0.7232
  409SOL     OW 1407   2.954   2.319   0.987 -0.3640  0.3851  0.1225
  409SOL    HW1 1408   2.997   2.390   1.042 -1.9833  1.1863  0.4108
  409SOL    HW2 1409   2.966   2.340   0.890  0.5480  0.1731  0.1814
  410SOL     OW 1410   0.457   2.913   3.252  0.2288  0.0960 -0.3805
  410SOL    HW1 1411   0.401   2.984   3.295 -1.3433 -1.4925  0.3430
  410SOL    HW2 1412   0.474   2.841   3.319  1.0149 -0.6484 -1.3548
  411SOL     OW 1413   3.254   0.024   0.764  0.3969 -0.1873  0.4043
  411SOL    HW1 1414   3.293  -0.017   0.846  1.7567  0.6973  0.2241
  411SOL    HW2 1415   3.293   0.115   0.751 -0.8626  0.2666 -0.4509
  412SOL     OW 1416   3.457   1.345   3.371 -0.4099 -0.0698  0.1940
  412SOL    HW1 1417   3.392   1.420   3.380 -0.3617 -0.0893  0.7057
  412SOL    HW2 1418   3.523   1.349   3.446  0.7848  0.5323 -0.8449
  413SOL     OW 1419   0.849   2.070   1.567 -0.4094 -0.2275  0.4321
  413SOL    HW1 1420   0.782   2.056   1.494 -0.3706 -0.7649  0.5005
  413SOL    HW2 1421   0.940   2.082   1.526  0.0430 -2.9492  0.4452
  414SOL     OW 1422   3.909   0.329   2.308  0.4050 -0.2496  0.0496
  414SOL    HW1 1423   3.946   0.368   2.392 -3.5189 -0.7114  2.1978
  414SOL    HW2 1424   3.950   0.239   2.293  3.2421  0.9855 -0.2566
  415SOL     OW 1425   1.165   3.999   1.752  0.3655 -0.3204 -0.3539
  415SOL    HW1 1426   1.264   4.000   1.743  0.6715 -1.3238  2.1909
  415SOL    HW2 1427   1.131   4.093   1.744  1.6024  0.1414 -0.4611
  416SOL     OW 1428   3.081   1.483   3.513 -0.2610  0.4056 -0.4487
  416SOL    HW1 1429   3.147   1.482   3.438  0.0947  0.1152 -0.1344
  416SOL    HW2 1430   3.127   1.513   3.596  0.0262 -1.8849  0.2751
  417SOL     OW 1431   1.951   2.632   1.591  0.2259 -0.2312 -0.3810
  417SOL    HW1 1432   1.854   2.614   1.572 -0.5116 -0.8479  3.2208
  417SOL    HW2 1433   1.958   2.715   1.646  1.7741 -0.1103 -0.7354
  418SOL     OW 1434   2.933   0.140   0.112 -0.6266  0.3435 -0.2354
  418SOL    HW1 1435   2.958   0.234   0.087 -1.2505  0.3262 -0.9732
  418SOL    HW2 1436   2.995   0.077   0.066 -0.1208  0.3906  0.3689
  419SOL     OW 1437   1.286   0.174   0.668  0.3169  0.2961 -0.2572
  419SOL    HW1 1438   1.316   0.266   0.692  2.3101 -0.1555 -0.7622
  419SOL    HW2 1439   1.190   0.162   0.691  0.5084  1.8918  1.5098
  420SOL     OW 1440   0.389   2.700   4.120  0.4238  0.3344  0.1631
  420SOL    HW1 1441   0.486   2.707   4.098  0.5080  0.2002  0.4728
  420SOL    HW2 1442   0.336   2.686   4.036  0.4137  2.7651 -0.2989
  421SOL     OW 1443   3.410   2.813   1.809 -0.3089 -0.0866  0.9596
  421SOL    HW1 1444   3.370   2.740   1.753 -0.2364 -0.5805  1.5476
  421SOL    HW2 1445   3.421   2.895   1.752  0.0577 -0.6739  0.1617
  422SOL     OW 1446   3.086   3.497   3.340 -0.1694  0.4418  0.2420
  422SOL    HW1 1447   3.155   3.551   3.389 -0.1586  1.2478 -0.6450
  422SOL    HW2 1448   3.017   3.558   3.303 -0.0354 -0.1288 -0.9818
  423SOL     OW 1449   2.231   1.414   1.657 -0.1878  0.3498 -0.5847
  423SOL    HW1 1450   2.244   1.368   1.745 -1.0157 -0.7448 -1.0211
  423SOL    HW2 1451   2.319   1.422   1.611  0.0824 -0.1225 -0.1610
  424SOL     OW 1452   0.505   1.657   0.627 -0.2965 -0.2357 -0.1678
  424SOL    HW1 1453   0.459   1.746   0.620  1.2019  0.5429 -0.5061
  424SOL    HW2 1454   0.463   1.604   0.701 -0.6884  1.0888  0.5949
  425SOL     OW 1455   3.166   4.181   2.066 -0.3160  0.0449 -0.3138
  425SOL    HW1 1456   3.264   4.157   2.067 -0.0842  0.9136  1.1836
  425SOL    HW2 1457   3.134   4.190   2.161 -1.6773  0.4930 -0.7984
  426SOL     OW 1458   1.246   1.286   2.817 -0.6544  0.1398  0.1181
  426SOL    HW1 1459   1.268   1.264   2.912 -1.6098 -2.5722 -0.1953
  426SOL    HW2 1460   1.151   1.261   2.798 -0.2814 -0.0518 -1.7109
  427SOL     OW 1461   1.943   0.381   2.317 -0.0060  0.0464  0.1064
  427SOL    HW1 1462   1.922   0.285   2.336 -1.1653 -0.1652 -1.8711
  427SOL    HW2 1463   1.974   0.390   2.222  1.0824  1.5101  0.5634
  428SOL     OW 1464   3.248   0.736   3.154  0.9544  0.3365  0.3938
  428SOL    HW1 1465   3.182   0.806   3.181  0.7295  0.3893 -0.2661
  428SOL    HW2 1466   3.288   0.760   3.065  0.1576 -0.8388 -0.3205
  429SOL     OW 1467   1.731   3.994   1.194  0.5071 -0.1099 -0.3131
  429SOL    HW1 1468   1.704   4.086   1.220 -0.1906 -0.5178  0.4654
  429SOL    HW2 1469   1.770   3.995   1.102  0.8715  1.0143 -0.1603
  430SOL     OW 1470   0.814   1.560   2.376  0.0918 -0.5269  0.3603
  430SOL    HW1 1471   0.769   1.625   2.314 -1.7199 -1.7148  0.3397
  430SOL    HW2 1472   0.855   1.486   2.322  1.8962  0.4104  0.3991
  431SOL     OW 1473   1.715   2.899   3.807  0.4935  0.2655  0.0765
  431SOL    HW1 1474   1.668   2.908   3.895 -0.6220  1.9176 -0.6454
  431SOL    HW2 1475   1.652   2.860   3.740  0.6359  1.0314 -0.5163
  432SOL     OW 1476   2.897   2.300   2.215  0.0319  0.0848  0.0374
  432SOL    HW1 1477   2.995   2.305   2.234  0.0259 -1.6912  0.6644
  432SOL    HW2 1478   2.874   2.368   2.145  1.9043 -0.1897 -0.9030
  433SOL     OW 1479   4.094   3.713   2.659  0.3557  0.1981 -0.0418
  433SOL    HW1 1480   3.997   3.694   2.674  0.5622 -1.1622 -0.3133
  433SOL    HW2 1481   4.124   3.783   2.723 -0.8768  0.8575 -0.1548
  434SOL     OW 1482   1.275   1.790   4.007  0.2914  0.0583 -0.4527
  434SOL    HW1 1483   1.250   1.838   3.923  0.2381 -0.2688 -0.6292
  434SOL    HW2 1484   1.358   1.736   3.990  0.8084  0.7146 -0.0266
  435SOL     OW 1485   1.563   3.338   1.149  0.0787 -0.2807 -0.4001
  435SOL    HW1 1486   1.504   3.417   1.129  0.1706 -0.4043 -1.2175
  435SOL    HW2 1487   1.646   3.345   1.094  0.0118 -1.0298 -0.6102
  436SOL     OW 1488   3.291   2.818   2.457  0.1468  0.1966 -0.5580
  436SOL    HW1 1489   3.272   2.913   2.480 -0.3423 -0.5491  2.6132
  436SOL    HW2 1490   3.387   2.810   2.430  0.0952  1.6177 -1.2580
  437SOL     OW 1491   1.715   1.032   2.151 -0.0560 -0.1763  0.1258
  437SOL    HW1 1492   1.700   1.130   2.166 -0.2450 -0.6047  3.6631
  437SOL    HW2 1493   1.641   0.981   2.193  0.9063 -1.8870 -0.1706
  438SOL     OW 1494   1.435   1.653   2.624 -0.3803  0.8832 -0.8667
  438SOL    HW1 1495   1.374   1.580   2.594  1.7528 -1.0905 -0.6701
  438SOL    HW2 1496   1.408   1.739   2.580 -1.8382 -0.3850 -2.5860
  439SOL     OW 1497   4.251   2.791   2.368 -0.5973 -0.1871  0.1174
  439SOL    HW1 1498   4.232   2.696   2.394 -2.8660  0.0956 -0.2982
  439SOL    HW2 1499   4.303   2.791   2.283 -0.2718 -1.0632  0.3032
  440SOL     OW 1500   1.150   0.967   3.889 -0.6515  0.5528  0.5210
  440SOL    HW1 1501   1.117   1.043   3.833  1.1037  1.1639  0.2617
  440SOL    HW2 1502   1.162   0.998   3.983 -0.8962  0.3037  0.6373
  441SOL     OW 1503   0.925   3.089   3.087 -0.5382 -0.1208  0.1270
  441SOL    HW1 1504   0.956   3.045   3.002  0.4477 -0.6871  0.7578
  441SOL    HW2 1505   0.870   3.024   3.140 -3.3323  1.0094 -1.1795
  442SOL     OW 1506   4.098   3.226   0.598  0.1663  0.0275  0.3521
  442SOL    HW1 1507   4.098   3.185   0.506 -0.3170  0.2728  0.2364
  442SOL    HW2 1508   4.173   3.292   0.604  0.8950 -0.7987  0.5107
  443SOL     OW 1509   0.121   2.095   2.400  0.5376  0.1675  0.1843
  443SOL    HW1 1510   0.160   2.029   2.465  0.2414 -0.2004 -0.0095
  443SOL    HW2 1511   0.091   2.047   2.318  2.4461  0.8287 -0.9714
  444SOL     OW 1512   3.242   3.285   2.670  0.1505 -0.3279 -0.7283
  444SOL    HW1 1513   3.170   3.225   2.633  0.1090 -0.8046  0.1064
  444SOL    HW2 1514   3.314   3.295   2.601  0.5834 -2.0717 -0.5917
  445SOL     OW 1515   4.178   0.525   2.163  0.1231  0.7429  0.4525
  445SOL    HW1 1516   4.085   0.529   2.127  0.0055 -0.5038  0.5457
  445SOL    HW2 1517   4.174   0.533   2.263 -0.3625 -3.0397  0.9066
  446SOL     OW 1518   2.908   1.905   3.036 -0.1465 -0.6157  0.3736
  446SOL    HW1 1519   2.820   1.897   2.990  0.1269  0.5088 -0.4017
  446SOL    HW2 1520   2.896   1.951   3.124 -0.1571  0.9866 -0.4333
  447SOL     OW 1521   0.358   0.954   2.810 -0.7415  0.5737 -0.9823
  447SOL    HW1 1522   0.334   1.051   2.798  0.9090  1.5890  2.6542
  447SOL    HW2 1523   0.457   0.943   2.801 -0.6610 -0.3350  0.7399
  448SOL     OW 1524   3.734   1.244   3.121  0.4958 -0.3630 -0.2070
  448SOL    HW1 1525   3.724   1.145   3.121 -1.0595 -0.2560  1.1863
  448SOL    HW2 1526   3.644   1.286   3.129  1.1798  1.1548 -0.1162
  449SOL     OW 1527   3.428   4.156   2.000  0.3667 -0.2217 -0.4487
  449SOL    HW1 1528   3.523   4.136   1.974  0.3403  0.6296 -1.2489
  449SOL    HW2 1529   3.377   4.184   1.919 -0.4232 -0.0957  0.0822
  450SOL     OW 1530   1.517   3.382   2.096 -0.0619  0.2473 -0.0388
  450SOL    HW1 1531   1.550   3.444   2.167  1.6495  0.9367 -1.3504
  450SOL    HW2 1532   1.443   3.426   2.046  0.3536  0.7652 -0.2101
  451SOL     OW 1533   1.761   1.742   3.289  0.1349  0.1492  0.2782
  451SOL    HW1 1534   1.675   1.694   3.305 -0.5463  1.3402  0.3095
  451SOL    HW2 1535   1.820   1.686   3.231 -0.8666 -0.4725 -0.1591
  452SOL     OW 1536   4.157   2.851   0.265  0.2038 -0.2188  1.1103
  452SOL    HW1 1537   4.185   2.755   0.260 -0.5569 -0.4677  1.4330
  452SOL    HW2 1538   4.063   2.859   0.234  0.9787  0.7972 -1.2292
  453SOL     OW 1539   0.373   2.299   4.054 -0.0337  0.1232  0.8454
  453SOL    HW1 1540   0.468   2.327   4.071 -0.0783  0.5966  0.3323
  453SOL    HW2 1541   0.314   2.339   4.123  0.2514 -0.9420  1.7409
  454SOL     OW 1542   2.797   2.767   3.550  0.5141 -0.2121  0.5044
  454SOL    HW1 1543   2.879   2.739   3.600  0.6565  1.9074  1.6070
  454SOL    HW2 1544   2.819   2.846   3.493 -0.5768 -0.1372  0.1598
  455SOL     OW 1545   0.480   1.920   1.273  0.5571  0.1626 -0.0077
  455SOL    HW1 1546   0.392   1.875   1.289  1.0110 -0.8904 -0.3706
  455SOL    HW2 1547   0.512   1.895   1.181  0.5348  1.7441 -0.4698
  456SOL     OW 1548   3.376   2.629   2.014  0.2578  0.2250  0.0121
  456SOL    HW1 1549   3.353   2.685   1.935  0.4735  0.4988  0.1452
  456SOL    HW2 1550   3.423   2.685   2.082  3.1282 -0.7364 -1.0408
  457SOL     OW 1551   1.050   2.501   3.960  0.0643  0.7446  0.1866
  457SOL    HW1 1552   1.073   2.414   4.002 -0.8994  0.1358 -0.5212
  457SOL    HW2 1553   1.013   2.563   4.029 -1.3185 -0.1759  0.2974
  458SOL     OW 1554   1.714   0.642   1.548  0.4634 -0.5738  0.0961
  458SOL    HW1 1555   1.777   0.712   1.512 -0.0000 -1.1839 -2.0776
  458SOL    HW2 1556   1.747   0.552   1.522  0.3328 -1.1141  1.7090
  459SOL     OW 1557   0.570   2.985   3.659 -0.4541  0.1219  0.6426
  459SOL    HW1 1558   0.579   3.026   3.749  3.2182  2.5624 -0.6194
  459SOL    HW2 1559   0.652   2.930   3.639 -1.2710 -0.5342 -1.1560
  460SOL     OW 1560   3.800   3.355   1.819 -0.0701 -0.0520  0.1754
  460SOL    HW1 1561   3.862   3.374   1.895 -0.1754 -2.1671  0.8473
  460SOL    HW2 1562   3.846   3.377   1.733  0.3871  1.5019  0.7884
  461SOL     OW 1563   0.759   3.212   2.331  0.1242  0.5746  0.6212
  461SOL    HW1 1564   0.788   3.188   2.424 -1.3609 -2.1887  0.4773
  461SOL    HW2 1565   0.833   3.190   2.268 -0.1650 -1.1086  0.8183
  462SOL     OW 1566   2.530   2.407   0.539 -0.0259  0.4937  0.5371
  462SOL    HW1 1567   2.589   2.331   0.511  2.0449  3.1871 -3.2963
  462SOL    HW2 1568   2.436   2.388   0.508  0.1363 -1.0105  0.8721
  463SOL     OW 1569   2.315   1.205   2.146 -0.4095  0.5136 -0.4050
  463SOL    HW1 1570   2.370   1.241   2.221  2.7611 -0.7964 -1.9341
  463SOL    HW2 1571   2.260   1.129   2.179  0.7357  0.1149  0.6733
  464SOL     OW 1572   1.631   4.109   1.645 -0.0061  0.0812  0.2091
  464SOL    HW1 1573   1.671   4.044   1.581 -0.7152 -0.3227  0.1599
  464SOL    HW2 1574   1.568   4.060   1.706  0.2802  0.5447  0.8861
  465SOL     OW 1575   1.794   3.996   0.951 -0.2930  0.7791 -0.7029
  465SOL    HW1 1576   1.847   3.912   0.945  0.1795  1.0759 -0.7864
  465SOL    HW2 1577   1.727   3.999   0.877  0.2211  0.8359 -1.1714
  466SOL     OW 1578   3.082   2.543   1.127  0.1582  0.2537  0.2968
  466SOL    HW1 1579   3.172   2.578   1.101 -0.0813  0.2215 -0.6095
  466SOL    HW2 1580   3.013   2.613   1.110 -0.1294 -0.1143 -0.0685
  467SOL     OW 1581   3.349   2.776   3.124  0.0271  0.6068  0.0240
  467SOL    HW1 1582   3.385   2.706   3.186  1.0373 -0.4395 -1.6534
  467SOL    HW2 1583   3.425   2.832   3.090 -0.3977  0.7148 -0.7814
  468SOL     OW 1584   0.716   2.810   0.906 -0.2465 -0.1149  0.4302
  468SOL    HW1 1585   0.792   2.756   0.869  0.5836  1.0581  0.3690
  468SOL    HW2 1586   0.716   2.804   1.005  0.7574  0.8923  0.5245
  469SOL     OW 1587   0.849   2.912   1.453  0.0941 -0.4235  0.1185
  469SOL    HW1 1588   0.770   2.860   1.484  0.3383  0.0086  1.5528
  469SOL    HW2 1589   0.823   3.007   1.440  0.2422 -0.3952  0.0228
  470SOL     OW 1590   3.868   3.527   3.017  0.2790  0.0218 -0.1626
  470SOL    HW1 1591   3.830   3.457   3.077  0.8486  0.0305  0.2145
  470SOL    HW2 1592   3.946   3.571   3.062  0.7096  0.0403 -0.9032
  471SOL     OW 1593   1.867   0.467   1.310  0.1427  0.0101 -0.4417
  471SOL    HW1 1594   1.927   0.545   1.292 -0.9662  1.0173  0.1077
  471SOL    HW2 1595   1.817   0.445   1.226 -0.6479  0.8755 -0.2131
  472SOL     OW 1596   2.381   0.797   3.662  0.4202 -0.3617  0.2974
  472SOL    HW1 1597   2.321   0.719   3.642 -0.8303  0.5011  0.5733
  472SOL    HW2 1598   2.397   0.801   3.761  1.7743 -1.1596  0.1407
  473SOL     OW 1599   2.934   3.431   1.757  0.5084  0.3653 -0.3369
  473SOL    HW1 1600   2.991   3.369   1.704 -0.5580 -1.4851  0.5824
  473SOL    HW2 1601   2.848   3.446   1.710  1.5792  3.0701 -1.6673
  474SOL     OW 1602   4.056   4.227   0.144 -0.4647  0.3060 -0.3447
  474SOL    HW1 1603   4.051   4.244   0.046 -1.4684  0.6662 -0.2488
  474SOL    HW2 1604   3.975   4.266   0.188 -0.0816  0.0588  0.6150
  475SOL     OW 1605   0.987   3.496   3.350  0.3417 -0.1255  0.2584
  475SOL    HW1 1606   0.932   3.497   3.433 -0.4409  1.2295 -0.2476
  475SOL    HW2 1607   1.084   3.496   3.375  0.1450 -1.2857  1.1465
  476SOL     OW 1608   3.821   1.356   3.691 -0.0049 -0.3086  0.1022
  476SOL    HW1 1609   3.745   1.374   3.628 -0.8916 -1.3190  0.8409
  476SOL    HW2 1610   3.783   1.324   3.778  1.2045  0.7363  1.0466
  477SOL     OW 1611   1.320   1.452   4.127 -0.1592  0.4496  0.0991
  477SOL    HW1 1612   1.378   1.508   4.067  1.2014  0.4377  1.3484
  477SOL    HW2 1613   1.282   1.509   4.199 -0.2308  0.1053  0.3354
  478SOL     OW 1614   0.912   1.013   0.796 -0.6433  0.0136 -0.7031
  478SOL    HW1 1615   0.834   0.950   0.797 -1.1393  0.4733 -3.3524
  478SOL    HW2 1616   0.902   1.076   0.719  2.6039 -0.2455 -1.4779
  479SOL     OW 1617   2.681   0.067   1.749  0.2030 -0.2992 -0.0672
  479SOL    HW1 1618   2.707   0.161   1.772 -2.5335  0.2324  1.1669
  479SOL    HW2 1619   2.678   0.056   1.650  2.4532  0.2878 -0.2529
  480SOL     OW 1620   2.953   2.780   1.124  0.1036  0.8761  0.4242
  480SOL    HW1 1621   2.918   2.826   1.042  0.3383  0.1095 -0.1205
  480SOL    HW2 1622   2.980   2.849   1.191 -2.6785  1.5209  1.0127
  481SOL     OW 1623   4.097   2.971   3.420 -0.0162 -0.1377 -0.2512
  481SOL    HW1 1624   4.150   2.891   3.447  1.3743  0.3713 -1.3232
  481SOL    HW2 1625   4.152   3.026   3.357 -0.7876  1.8732  0.7675
  482SOL     OW 1626   3.691   3.508   0.719 -0.8060 -0.6308  0.1277
  482SOL    HW1 1627   3.768   3.480   0.662  0.6600  1.2401  1.0783
  482SOL    HW2 1628   3.666   3.434   0.781  1.4247 -0.7191  1.0050
  483SOL     OW 1629   3.202   0.475   2.785 -0.0892 -0.0991  0.3591
  483SOL    HW1 1630   3.237   0.395   2.736  2.1119  0.4562  0.9124
  483SOL    HW2 1631   3.194   0.551   2.721  0.1672 -0.1178  0.3007
  484SOL     OW 1632   2.052   1.620   1.574 -0.2038  0.3765  0.3173
  484SOL    HW1 1633   1.983   1.637   1.645  0.1828 -1.9322  1.3388
  484SOL    HW2 1634   2.124   1.563   1.612  0.5256 -0.0925 -1.6945
  485SOL     OW 1635   4.197   3.418   1.275  0.2432  0.3177  0.0463
  485SOL    HW1 1636   4.191   3.513   1.306 -0.6315  0.4183 -0.3938
  485SOL    HW2 1637   4.108   3.389   1.240  0.5249 -0.6368  0.0742
  486SOL     OW 1638   0.970   1.642   0.678 -0.8009 -0.0051 -0.0846
  486SOL    HW1 1639   0.939   1.710   0.745 -2.7512 -1.4146  0.5605
  486SOL    HW2 1640   0.998   1.688   0.594 -2.2474  1.5881  0.2557
  487SOL     OW 1641   2.647   1.785   3.919  0.1621  0.5980 -0.3254
  487SOL    HW1 1642   2.637   1.703   3.862  1.1953  1.0929 -1.2745
  487SOL    HW2 1643   2.700   1.854   3.868  1.1915  1.0437  1.2741
  488SOL     OW 1644   3.480   4.259   3.073  0.9057 -0.1319  0.0956
  488SOL    HW1 1645   3.415   4.333   3.090 -0.7919 -1.1444 -1.6198
  488SOL    HW2 1646   3.573   4.297   3.067  0.5789  1.3025  2.8784
  489SOL     OW 1647   2.423   1.544   1.484  0.4061  0.1979  0.5857
  489SOL    HW1 1648   2.440   1.534   1.386 -1.5252  0.6089  0.1601
  489SOL    HW2 1649   2.390   1.637   1.502  0.7446  0.1285  1.6399
  490SOL     OW 1650   1.007   2.922   3.996  0.0466 -0.0826 -0.2793
  490SOL    HW1 1651   0.966   2.977   4.069  1.6041 -0.2989  0.8034
  490SOL    HW2 1652   0.968   2.950   3.908 -1.3651  0.6616  0.5494
  491SOL     OW 1653   1.316   3.497   3.689 -0.5539  0.0411  0.7187
  491SOL    HW1 1654   1.381   3.488   3.764 -0.3959  2.3498  0.9283
  491SOL    HW2 1655   1.225   3.472   3.722 -0.1541 -1.0784  1.0328
  492SOL     OW 1656   3.306   3.435   2.895  0.1819 -0.3051  0.1695
  492SOL    HW1 1657   3.231   3.421   2.960 -0.6547 -0.6355 -0.8428
  492SOL    HW2 1658   3.295   3.371   2.819  1.5093 -0.3630  0.0146
  493SOL     OW 1659   0.852   1.993   2.331 -0.2104 -0.0988 -0.1097
  493SOL    HW1 1660   0.864   2.005   2.232 -1.4040  1.8257 -0.0740
  493SOL    HW2 1661   0.756   1.975   2.351 -0.0108 -0.2942  0.7170
  494SOL     OW 1662   2.617   3.011   0.166  0.9006  0.3766 -0.1665
  494SOL    HW1 1663   2.663   3.066   0.096  0.5755  0.2762 -0.4632
  494SOL    HW2 1664   2.614   3.062   0.251  0.8827  0.6923 -0.3538
  495SOL     OW 1665   1.846   2.877   0.600  0.1861 -0.2457 -0.5792
  495SOL    HW1 1666   1.772   2.868   0.666 -0.4194 -0.0577 -1.2128
  495SOL    HW2 1667   1.807   2.889   0.509  1.0074 -0.8616 -1.0231
  496SOL     OW 1668   1.934   0.687   1.977  0.0316  0.0639  0.7317
  496SOL    HW1 1669   1.937   0.772   2.031  1.2410  0.3711  0.2085
  496SOL    HW2 1670   2.028   0.657   1.958 -0.3428  0.2382 -1.6289
  497SOL     OW 1671   4.251   4.238   0.327 -0.8810  0.2767 -0.2223
  497SOL    HW1 1672   4.190   4.238   0.248  0.9366  2.6216 -1.7489
  497SOL    HW2 1673   4.262   4.332   0.359 -0.8616 -0.5231  2.3166
  498SOL     OW 1674   2.451   1.903   2.698 -0.4418 -0.1289  0.3347
  498SOL    HW1 1675   2.528   1.871   2.752 -0.1261 -0.4350 -0.2939
  498SOL    HW2 1676   2.366   1.881   2.747 -0.2262 -1.5907  0.1141
  499SOL     OW 1677   1.256   2.102   2.497 -0.4464 -0.3158  0.1798
  499SOL    HW1 1678   1.197   2.135   2.423  1.2884 -0.0333 -1.1318
  499SOL    HW2 1679   1.199   2.059   2.567 -2.3818  1.5845 -0.1094
  500SOL     OW 1680   1.882   1.503   3.204 -0.8831  0.0406  0.1924
  500SOL    HW1 1681   1.926   1.468   3.286 -1.1441  1.8319  1.1672
  500SOL    HW2 1682   1.908   1.448   3.126  0.0600 -1.2050  1.3418
  501SOL     OW 1683   2.507   2.831   0.725  0.3497  0.0070  0.1402
  501SOL    HW1 1684   2.413   2.845   0.693  0.7241  1.2869 -0.4651
  501SOL    HW2 1685   2.514   2.740   0.766 -1.1832 -0.0583  0.3308
  502SOL     OW 1686   3.142   1.887   3.598 -0.2475 -0.5296  0.4676
  502SOL    HW1 1687   3.074   1.939   3.650 -0.3289 -0.0878 -0.0753
  502SOL    HW2 1688   3.098   1.840   3.522 -0.5942 -3.3107  2.2487
  503SOL     OW 1689   0.356   2.919   0.033  0.4289 -0.3459 -0.0727
  503SOL    HW1 1690   0.305   2.949  -0.048 -2.6860 -0.7610  1.5886
  503SOL    HW2 1691   0.385   2.824   0.020 -1.7027 -1.0484 -0.0380
  504SOL     OW 1692   1.088   0.397   1.198 -0.3838  0.2806  0.5121
  504SOL    HW1 1693   1.036   0.315   1.223  0.7541 -0.3964  0.7654
  504SOL    HW2 1694   1.173   0.398   1.250  2.4001 -1.4805 -3.5337
  505SOL     OW 1695   3.578   2.881   0.961  0.2055 -0.4514  0.3101
  505SOL    HW1 1696   3.560   2.880   0.863 -0.1183 -1.0206  0.3685
  505SOL    HW2 1697   3.663   2.931   0.979  0.6908 -1.0133 -0.3375
  506SOL     OW 1698   0.388   0.922   3.095  0.1436  0.6085 -0.1760
  506SOL    HW1 1699   0.432   1.009   3.117 -0.0828  1.2239 -2.0449
  506SOL    HW2 1700   0.346   0.927   3.005 -0.4775 -1.2274 -0.0428
  507SOL     OW 1701   2.941   2.027   0.872 -0.0146  0.7594  0.5585
  507SOL    HW1 1702   3.033   2.061   0.890  0.7561 -0.2840 -1.1322
  507SOL    HW2 1703   2.947   1.951   0.807 -1.7400 -1.8077  3.1799
  508SOL     OW 1704   1.476   1.317   2.615 -0.5136 -0.2124 -0.7590
  508SOL    HW1 1705   1.475   1.242   2.549  0.5162 -1.0843  0.1570
  508SOL    HW2 1706   1.389   1.318   2.665 -1.1086  0.1568 -1.7787
  509SOL     OW 1707   1.702   2.630   1.518 -0.4450 -0.2569 -0.1633
  509SOL    HW1 1708   1.668   2.612   1.611  0.7038  0.7000  0.4654
  509SOL    HW2 1709   1.630   2.608   1.453 -0.7723 -2.3957  0.8294
  510SOL     OW 1710   3.601   2.438   3.215 -0.0323 -0.3642 -0.2259
  510SOL    HW1 1711   3.672   2.407   3.278 -0.1487  0.4087  0.2913
  510SOL    HW2 1712   3.535   2.494   3.264  0.6256  1.4337 -1.2807
  511SOL     OW 1713   2.827   4.043   0.017  0.2448  0.1207 -0.5178
  511SOL    HW1 1714   2.831   3.944   0.024 -1.0205  0.1248  1.0757
  511SOL    HW2 1715   2.796   4.080   0.105 -0.8761  1.8005 -1.5642
  512SOL     OW 1716   3.617   1.344   2.555 -0.1276 -0.1828  0.0842
  512SOL    HW1 1717   3.689   1.399   2.599 -0.8652  0.1990  0.8404
  512SOL    HW2 1718   3.658   1.288   2.483  1.1615 -0.9898  1.3908
  513SOL     OW 1719   0.914   2.722   2.582  0.7673 -0.5718 -0.0259
  513SOL    HW1 1720   0.983   2.738   2.511  0.0550  2.2850 -0.1935
  513SOL    HW2 1721   0.823   2.736   2.542  0.3381  0.7651  1.3479
  514SOL     OW 1722   2.581   1.562   3.708  0.6233 -0.0463  0.7234
  514SOL    HW1 1723   2.649   1.577   3.636  0.2570  0.9897  0.5715
  514SOL    HW2 1724   2.527   1.480   3.686  0.1885  0.5255 -0.4633
  515SOL     OW 1725   1.784   2.113   0.661 -0.1002 -0.2391  0.0593
  515SOL    HW1 1726   1.808   2.055   0.583 -0.0580  0.7614 -0.6836
  515SOL    HW2 1727   1.804   2.208   0.639  0.3552  0.0172  1.4704
  516SOL     OW 1728   0.136   3.426   1.095  0.1716  0.0013  0.0723
  516SOL    HW1 1729   0.228   3.415   1.133  0.2401  2.1930  0.7040
  516SOL    HW2 1730   0.070   3.432   1.169 -0.4452 -1.0764 -0.3678
  517SOL     OW 1731   3.892   0.041   0.993  0.1596 -0.5864 -0.4183
  517SOL    HW1 1732   3.799   0.008   1.006  0.4787 -1.2216  0.3155
  517SOL    HW2 1733   3.952  -0.003   1.059  0.1479  3.7441  2.8915
  518SOL     OW 1734   3.631   2.752   2.857  0.4498 -0.1148 -0.1725
  518SOL    HW1 1735   3.609   2.815   2.932 -2.0199 -0.4999 -0.5051
  518SOL    HW2 1736   3.595   2.661   2.879  0.5058 -0.4502 -1.4145
  519SOL     OW 1737   0.217   1.853   3.832 -0.5153 -0.5334 -0.1936
  519SOL    HW1 1738   0.316   1.838   3.826  0.2708  3.4570  0.4520
  519SOL    HW2 1739   0.182   1.873   3.741 -0.3333  0.0557 -0.1348
  520SOL     OW 1740   2.018   0.426   0.548  0.0321  0.8841  0.5008
  520SOL    HW1 1741   2.006   0.328   0.534  1.9374  0.6199  0.3566
  520SOL    HW2 1742   2.027   0.445   0.646 -0.9064  1.0078  0.5698
  521SOL     OW 1743   1.623   0.872   1.213  0.0162  0.2911 -0.4640
  521SOL    HW1 1744   1.714   0.871   1.254  0.3139  1.0866 -1.0976
  521SOL    HW2 1745   1.565   0.936   1.264  0.0220  0.3447 -0.5259
  522SOL     OW 1746   0.355   1.881   0.660  0.4371  0.6164 -0.3499
  522SOL    HW1 1747   0.327   1.877   0.756 -0.4051 -1.1432 -0.6257
  522SOL    HW2 1748   0.390   1.972   0.640 -0.2502  1.3096  1.3868
  523SOL     OW 1749   4.112   1.523   4.108 -0.8343  0.3666 -0.1441
  523SOL    HW1 1750   4.204   1.503   4.073 -1.4841 -1.0749 -1.1066
  523SOL    HW2 1751   4.096   1.469   4.190 -1.1925 -0.1739 -0.5651
  524SOL     OW 1752   2.445   0.573   2.722 -0.1446  0.2927 -0.3234
  524SOL    HW1 1753   2.525   0.525   2.686 -0.1273  0.4206 -0.4558
  524SOL    HW2 1754   2.475   0.641   2.788 -0.0118  1.3525 -1.4400
  525SOL     OW 1755   2.443   0.791   2.529 -0.4599 -0.6515  0.6327
  525SOL    HW1 1756   2.480   0.725   2.465  0.2709 -0.6225  1.0200
  525SOL    HW2 1757   2.414   0.744   2.613 -0.6255 -0.5763  0.6194
  526SOL     OW 1758   3.649   3.319   0.928 -0.0698  0.9655  0.1354
  526SOL    HW1 1759   3.679   3.381   1.001 -0.3158  1.0182  0.1936
  526SOL    HW2 1760   3.690   3.229   0.943  0.5079  1.1844 -0.1036
  527SOL     OW 1761   1.029   3.417   1.536 -0.3908 -0.2356  0.0992
  527SOL    HW1 1762   0.943   3.367   1.544 -0.5842 -0.0742 -0.8497
  527SOL    HW2 1763   1.084   3.376   1.463  0.4865 -0.5341  0.8990
  528SOL     OW 1764   3.467   0.486   0.587  0.0050 -0.4325  0.3362
  528SOL    HW1 1765   3.550   0.532   0.620  0.8625 -0.6719 -1.3520
  528SOL    HW2 1766   3.387   0.527   0.630  0.8958  0.9505  0.7435
  529SOL     OW 1767   1.386   0.367   1.616  0.6345 -0.4716  0.1546
  529SOL    HW1 1768   1.448   0.430   1.662  0.2776  0.6694 -0.8938
  529SOL    HW2 1769   1.439   0.291   1.577  1.1158 -0.5837  1.0034
  530SOL     OW 1770   2.081   2.729   0.529  0.3423  0.1578  0.3095
  530SOL    HW1 1771   2.004   2.778   0.569 -0.5072  0.5344 -1.6671
  530SOL    HW2 1772   2.053   2.690   0.441  1.4642 -2.4881  1.0181
  531SOL     OW 1773   2.333   0.204   1.050  0.0947  0.4310  0.7483
  531SOL    HW1 1774   2.323   0.157   0.962  0.0449 -0.6364  1.3020
  531SOL    HW2 1775   2.367   0.139   1.118  2.7187  1.8497  0.9197
  532SOL     OW 1776   0.963   3.773   0.996  0.0022  0.5783 -0.2503
  532SOL    HW1 1777   1.008   3.688   0.972  0.5002  0.8567 -0.3137
  532SOL    HW2 1778   1.013   3.817   1.071 -1.5300 -0.2845  1.3249
  533SOL     OW 1779   1.969   1.029   2.047  0.1810  0.1464 -0.3414
  533SOL    HW1 1780   1.882   1.053   2.088  0.0073 -0.8824 -0.0927
  533SOL    HW2 1781   1.977   1.074   1.958 -1.1373 -0.7153 -0.9173
  534SOL     OW 1782   0.565   2.355   3.347  0.1938 -0.0034  0.1380
  534SOL    HW1 1783   0.590   2.345   3.251 -0.6260 -1.2182  0.0267
  534SOL    HW2 1784   0.606   2.281   3.399 -0.9499 -0.4809  0.3869
  535SOL     OW 1785   3.511   3.405   3.369  0.2166  0.2543  0.5975
  535SOL    HW1 1786   3.543   3.481   3.425 -0.7176  0.3299  1.0408
  535SOL    HW2 1787   3.570   3.396   3.289  0.4015  1.3862  0.5932
  536SOL     OW 1788   2.561   0.941   1.020  0.1759 -0.4278 -0.1006
  536SOL    HW1 1789   2.551   1.009   0.947 -0.5531 -1.6990 -1.2397
  536SOL    HW2 1790   2.477   0.887   1.026 -0.7589  1.1603  3.3439
  537SOL     OW 1791   4.249   3.308   2.496  0.0922  0.0818 -0.2649
  537SOL    HW1 1792   4.306   3.292   2.577  1.9874  0.6477 -1.4199
  537SOL    HW2 1793   4.169   3.362   2.523 -0.5122 -1.6216  1.6022
  538SOL     OW 1794   3.911   3.335   3.510 -0.0892 -0.1366 -0.0578
  538SOL    HW1 1795   3.917   3.409   3.443 -1.3114 -0.3381 -0.4166
  538SOL    HW2 1796   3.873   3.254   3.466  1.8957 -1.2280  0.1525
  539SOL     OW 1797   3.058   4.098   0.907 -0.2980 -0.2254 -0.3596
  539SOL    HW1 1798   3.089   4.164   0.838 -1.3370  1.3800  0.6446
  539SOL    HW2 1799   2.991   4.142   0.967 -0.4920 -2.0049  0.8051
  540SOL     OW 1800   3.547   2.713   2.221  0.3033 -0.2637  0.2881
  540SOL    HW1 1801   3.644   2.704   2.196 -0.0271 -0.8517 -0.8780
  540SOL    HW2 1802   3.520   2.635   2.277 -0.1265 -1.5595 -1.6267
  541SOL     OW 1803   0.896   1.296   2.268 -0.3377  0.3308  0.1107
  541SOL    HW1 1804   0.938   1.248   2.191  1.0231  0.9004  0.4657
  541SOL    HW2 1805   0.867   1.230   2.337  0.8585 -0.0522  0.2734
  542SOL     OW 1806   1.860   3.256   3.806 -0.1227 -0.0074  0.0295
  542SOL    HW1 1807   1.829   3.345   3.773  1.2930 -0.1917 -1.9805
  542SOL    HW2 1808   1.789   3.215   3.862 -0.6346  2.5656  1.4206
  543SOL     OW 1809   1.684   2.461   1.101  0.0751  0.0669 -0.2347
  543SOL    HW1 1810   1.694   2.560   1.101 -2.4140  0.4696 -3.0708
  543SOL    HW2 1811   1.608   2.435   1.160 -1.3469  0.2400 -1.9347
  544SOL     OW 1812   2.963   2.076   3.691  0.6335  0.1113 -0.0845
  544SOL    HW1 1813   2.880   2.030   3.659  0.3649 -0.2136  1.0409
  544SOL    HW2 1814   2.959   2.173   3.667 -0.7355  0.4073  1.1846
  545SOL     OW 1815   1.992   1.429   3.432 -0.1728 -0.0755 -0.6381
  545SOL    HW1 1816   2.009   1.393   3.523  1.8539 -0.8755 -1.2655
  545SOL    HW2 1817   2.053   1.507   3.416 -1.3397  0.8058 -0.9040
  546SOL     OW 1818   1.095   3.487   0.812 -0.4657  0.3109  0.1467
  546SOL    HW1 1819   1.176   3.541   0.785 -1.8360  1.9381 -0.9120
  546SOL    HW2 1820   1.017   3.516   0.758 -1.4969 -2.2195  0.1754
  547SOL     OW 1821   0.975   2.966   2.847 -0.3126  0.4453 -0.1513
  547SOL    HW1 1822   1.026   2.989   2.765 -2.1991  2.5394 -0.8544
  547SOL    HW2 1823   0.900   2.904   2.823  0.3505 -0.5822  0.3926
  548SOL     OW 1824   1.777   0.208   3.256 -0.1934 -0.0314  0.1896
  548SOL    HW1 1825   1.866   0.164   3.254  0.3960  1.0960  0.7346
  548SOL    HW2 1826   1.774   0.279   3.186 -0.7842 -0.2675 -0.0330
  549SOL     OW 1827   1.208   1.492   1.195  0.1104 -0.1418  0.4170
  549SOL    HW1 1828   1.289   1.476   1.139 -1.2606 -2.1418 -1.1429
  549SOL    HW2 1829   1.210   1.431   1.274 -0.3620 -0.9668 -0.1976
  550SOL     OW 1830   0.073   0.501   1.928  0.4580  0.2495 -0.0905
  550SOL    HW1 1831   0.170   0.504   1.951  0.7772  1.5447 -1.4817
  550SOL    HW2 1832   0.019   0.532   2.007  1.4027  2.7974 -0.3822
  551SOL     OW 1833   1.490   3.770   2.283 -0.2597  0.0174  0.3419
  551SOL    HW1 1834   1.448   3.756   2.194  1.3932 -2.1346 -0.1831
  551SOL    HW2 1835   1.513   3.867   2.294 -2.7683  0.7559 -0.4549
  552SOL     OW 1836   2.747   0.740   1.894  0.2638 -0.1320  0.2871
  552SOL    HW1 1837   2.780   0.733   1.800  1.0969 -0.0849  0.5666
  552SOL    HW2 1838   2.699   0.827   1.906 -0.6483 -0.5383 -0.3313
  553SOL     OW 1839   0.845   3.039   3.758  0.0578  0.6567 -0.2301
  553SOL    HW1 1840   0.833   3.072   3.664  1.3205  0.2886 -0.5493
  553SOL    HW2 1841   0.817   3.110   3.822 -1.7068  0.5701 -0.8705
  554SOL     OW 1842   4.185   3.662   1.381 -0.4315 -0.7104  0.0379
  554SOL    HW1 1843   4.154   3.738   1.324 -1.1993 -0.2093  1.0894
  554SOL    HW2 1844   4.268   3.688   1.430 -0.5526 -0.6403  0.2060
  555SOL     OW 1845   0.689   2.756   4.152 -0.3959 -0.8950  0.3161
  555SOL    HW1 1846   0.777   2.708   4.149 -0.4258 -0.9145 -0.7034
  555SOL    HW2 1847   0.705   2.853   4.167 -0.1768 -0.8700 -0.0525
  556SOL     OW 1848   3.654   3.599   1.086  0.8813 -0.1322 -0.2812
  556SOL    HW1 1849   3.731   3.622   1.028  1.7471  0.3435  1.0128
  556SOL    HW2 1850   3.679   3.522   1.145  0.0705 -0.5258 -0.4306
  557SOL     OW 1851   3.932   0.189   1.593 -0.1438  0.1813  0.3891
  557SOL    HW1 1852   3.909   0.232   1.506  1.8335  0.4546 -0.0398
  557SOL    HW2 1853   4.015   0.134   1.582  0.4018  0.5644  2.1859
  558SOL     OW 1854   4.067   1.988   2.242 -0.2742  0.8454  0.1349
  558SOL    HW1 1855   3.981   1.938   2.230 -0.3798  0.8996  0.6656
  558SOL    HW2 1856   4.050   2.085   2.224  0.1063  0.6130 -1.7233
  559SOL     OW 1857   3.256   1.649   3.673 -0.0977 -0.1648 -0.4915
  559SOL    HW1 1858   3.195   1.720   3.638 -0.2744 -0.5643 -1.0098
  559SOL    HW2 1859   3.349   1.667   3.638  0.5569  1.5928  1.9049
  560SOL     OW 1860   2.394   1.106   2.579  0.3210  0.1980  0.2738
  560SOL    HW1 1861   2.449   1.047   2.520  0.8913 -0.2263  1.1930
  560SOL    HW2 1862   2.298   1.100   2.551  0.5925  0.1140 -0.6769
  561SOL     OW 1863   1.756   2.815   2.571 -0.0879  0.0489 -0.2383
  561SOL    HW1 1864   1.722   2.755   2.643  3.3502 -2.0676 -0.1518
  561SOL    HW2 1865   1.726   2.780   2.482  0.7667 -1.0810 -0.1047
  562SOL     OW 1866   1.405   1.763   0.498  0.1182 -0.6140  0.2770
  562SOL    HW1 1867   1.430   1.668   0.482 -0.8631 -0.8091 -0.1970
  562SOL    HW2 1868   1.443   1.793   0.585  1.1074 -1.1851  0.0539
  563SOL     OW 1869   0.272   2.014   4.098 -0.2625  0.1561 -0.2851
  563SOL    HW1 1870   0.238   2.014   4.003 -0.5065  1.3067 -0.2143
  563SOL    HW2 1871   0.330   2.095   4.112  0.2002 -0.2888  0.4024
  564SOL     OW 1872   0.392   3.496   2.222  0.4323  0.5620  0.3730
  564SOL    HW1 1873   0.319   3.494   2.290  0.1046 -0.9573  0.0233
  564SOL    HW2 1874   0.480   3.498   2.268  0.2186 -0.7553  0.8662
  565SOL     OW 1875   0.539   1.432   1.832 -0.4091  0.4404 -0.4950
  565SOL    HW1 1876   0.568   1.351   1.782 -1.9166  0.1451 -0.9222
  565SOL    HW2 1877   0.564   1.422   1.929 -0.4568 -0.4555 -0.5701
  566SOL     OW 1878   3.500   2.524   2.418  0.5942 -0.3001  0.1834
  566SOL    HW1 1879   3.404   2.505   2.439  0.5142 -0.4083 -0.2746
  566SOL    HW2 1880   3.558   2.461   2.470  0.3792 -0.8975 -0.2982
  567SOL     OW 1881   3.055   2.303   1.687 -0.0067  0.8853  0.4615
  567SOL    HW1 1882   3.052   2.297   1.587 -0.6352  0.1845  0.5127
  567SOL    HW2 1883   2.970   2.343   1.720  0.3252  1.3959  0.7037
  568SOL     OW 1884   2.536   4.056   2.007  0.0178  0.0989  0.6222
  568SOL    HW1 1885   2.589   4.140   2.020 -0.8419  0.5972  1.0458
  568SOL    HW2 1886   2.569   4.008   1.925  0.3004  1.0271  0.1755
  569SOL     OW 1887   3.985   2.843   0.713  0.0882  0.7113 -0.1976
  569SOL    HW1 1888   3.997   2.818   0.809  2.2852 -0.0472 -0.6121
  569SOL    HW2 1889   3.937   2.769   0.666 -0.3396  0.7608  0.1520
  570SOL     OW 1890   2.679   1.929   2.878 -0.5625 -0.8875  0.0121
  570SOL    HW1 1891   2.705   1.990   2.804  1.3612 -0.9078  0.6120
  570SOL    HW2 1892   2.634   1.983   2.950 -1.2826 -0.6551 -0.6029
  571SOL     OW 1893   0.606   3.794   1.415  0.4065 -0.3081  0.1212
  571SOL    HW1 1894   0.646   3.821   1.503 -1.8271 -0.2543  1.1876
  571SOL    HW2 1895   0.572   3.876   1.369  1.2105 -0.3863 -0.6346
  572SOL     OW 1896   0.557   3.518   1.325 -0.1084  0.5269  0.7466
  572SOL    HW1 1897   0.633   3.477   1.275  0.7811  1.7333  1.0698
  572SOL    HW2 1898   0.588   3.601   1.370 -1.1419 -0.0242  2.5542
  573SOL     OW 1899   4.014   4.056   1.524 -0.1481 -0.0202  0.2488
  573SOL    HW1 1900   4.034   3.963   1.492  1.4811  0.0500  0.9510
  573SOL    HW2 1901   3.942   4.053   1.592 -1.3204 -0.5483 -0.9649
  574SOL     OW 1902   3.178   2.407   0.731  0.3634  0.1810  0.6163
  574SOL    HW1 1903   3.079   2.417   0.736  0.3894  0.7968  0.0609
  574SOL    HW2 1904   3.201   2.323   0.682  0.1010  0.6403 -0.3265
  575SOL     OW 1905   1.240   1.046   4.132  0.2845  0.4610 -0.0973
  575SOL    HW1 1906   1.254   1.129   4.185  1.4977 -0.0270  0.3798
  575SOL    HW2 1907   1.212   0.972   4.194  1.4233 -0.0380 -0.1447
  576SOL     OW 1908   0.760   2.954   3.236 -0.0780  0.2756 -0.7744
  576SOL    HW1 1909   0.818   2.886   3.281 -0.3099  0.9886  0.6411
  576SOL    HW2 1910   0.666   2.944   3.269 -0.3978  0.3737 -1.6277
  577SOL     OW 1911   3.474   3.035   2.578 -0.4533  0.3168 -0.2610
  577SOL    HW1 1912   3.534   3.051   2.500 -0.2802  0.9875 -0.0001
  577SOL    HW2 1913   3.473   2.937   2.600  0.2499  0.2527 -0.5028
  578SOL     OW 1914   2.788   0.624   1.369 -0.7771 -1.1889  0.9704
  578SOL    HW1 1915   2.792   0.675   1.455  0.5233 -0.6679  0.6191
  578SOL    HW2 1916   2.799   0.687   1.292 -1.5217 -1.7039  0.4325
  579SOL     OW 1917   3.656   2.812   3.771 -0.2701 -0.5024 -0.1904
  579SOL    HW1 1918   3.689   2.760   3.692 -1.3075 -1.0488 -0.2812
  579SOL    HW2 1919   3.675   2.909   3.757 -0.9461 -0.5251 -1.3787
  580SOL     OW 1920   3.938   2.852   3.871  0.1860  0.2515  0.0392
  580SOL    HW1 1921   3.844   2.848   3.838  0.2060 -0.3519  0.0532
  580SOL    HW2 1922   3.971   2.946   3.863  0.3850  0.0550 -2.2721
  581SOL     OW 1923   1.462   3.038   2.683  0.3939  0.0466 -0.1804
  581SOL    HW1 1924   1.544   3.095   2.696  1.1542 -0.5519 -1.9599
  581SOL    HW2 1925   1.414   3.029   2.770  1.1740  1.9914  0.5085
  582SOL     OW 1926   0.580   1.909   2.131 -0.2013 -0.1984 -0.6015
  582SOL    HW1 1927   0.480   1.906   2.124 -0.1636 -0.1862 -1.1770
  582SOL    HW2 1928   0.613   1.994   2.090 -0.2144  1.7168  2.9812
  583SOL     OW 1929   1.471   2.922   0.017 -0.3368  0.0264  0.1738
  583SOL    HW1 1930   1.562   2.965   0.016 -0.4276  0.2162 -0.3029
  583SOL    HW2 1931   1.436   2.923   0.110 -0.7351  1.8518  0.0472
  584SOL     OW 1932   1.972   3.695   3.867  0.6825 -0.7331 -0.1954
  584SOL    HW1 1933   1.977   3.599   3.895  0.0796 -0.1207  2.2986
  584SOL    HW2 1934   2.051   3.717   3.810  1.5211 -2.3961  0.2518
  585SOL     OW 1935   2.663   0.382   2.293  0.5103 -0.1843 -0.6132
  585SOL    HW1 1936   2.625   0.290   2.285  0.9986 -0.4374 -0.0278
  585SOL    HW2 1937   2.759   0.381   2.263  0.5777  0.0918 -0.4106
  586SOL     OW 1938   1.592   0.274   1.467  0.0873 -0.2888 -0.4122
  586SOL    HW1 1939   1.587   0.320   1.378 -1.8686  0.9104  0.2560
  586SOL    HW2 1940   1.644   0.332   1.530  0.1223 -0.3900 -0.3490
  587SOL     OW 1941   2.991   3.338   0.445  0.7021  0.3325  0.0509
  587SOL    HW1 1942   3.083   3.360   0.478  1.3181 -0.2251 -1.2440
  587SOL    HW2 1943   2.951   3.268   0.505  2.2127 -1.4163 -0.8672
  588SOL     OW 1944   2.357   1.256   2.807 -0.0722 -0.2291  0.0882
  588SOL    HW1 1945   2.351   1.195   2.727  2.9779  1.0611 -1.2843
  588SOL    HW2 1946   2.289   1.228   2.874 -0.3083 -3.7583 -1.3653
  589SOL     OW 1947   2.416   2.494   1.685  0.1990 -0.2436 -0.6618
  589SOL    HW1 1948   2.317   2.484   1.678  0.1546  0.1951 -0.6356
  589SOL    HW2 1949   2.446   2.571   1.629  0.0861  1.9362  2.0703
  590SOL     OW 1950   0.361   1.987   3.603  0.1498 -0.0817 -0.0537
  590SOL    HW1 1951   0.408   2.013   3.519 -0.7719  0.8427 -0.2883
  590SOL    HW2 1952   0.275   1.941   3.580 -0.2812  0.4963  0.3711
  591SOL     OW 1953   1.005   2.259   1.026 -0.1196  0.1533 -0.4296
  591SOL    HW1 1954   1.097   2.288   1.001  0.1122 -0.4429 -0.3021
  591SOL    HW2 1955   0.971   2.316   1.100  0.8577 -0.7337  0.7343
  592SOL     OW 1956   3.885   2.289   2.859  0.6173  0.1142  0.1531
  592SOL    HW1 1957   3.966   2.326   2.815  0.3394 -0.4944 -0.9188
  592SOL    HW2 1958   3.836   2.231   2.793 -1.2907  1.3542  0.4069
  593SOL     OW 1959   0.910   3.581   1.199 -0.0446 -0.2644  0.2678
  593SOL    HW1 1960   0.880   3.656   1.139  1.2480  0.4150  0.4536
  593SOL    HW2 1961   0.844   3.506   1.192 -1.9480  1.2721  0.8787
  594SOL     OW 1962   2.303   2.324   0.913 -0.3724 -0.5650 -0.6750
  594SOL    HW1 1963   2.253   2.381   0.848  0.9115  1.4070 -0.0185
  594SOL    HW2 1964   2.240   2.293   0.985 -1.1631 -0.3093 -1.2392
  595SOL     OW 1965   0.626   1.394   3.926  0.6578 -0.1105 -0.2692
  595SOL    HW1 1966   0.681   1.325   3.880  0.5342  0.3229 -1.0777
  595SOL    HW2 1967   0.652   1.485   3.894 -0.2488  0.1288 -0.3734
  596SOL     OW 1968   0.520   3.274   3.925 -0.1959  0.0808 -0.1349
  596SOL    HW1 1969   0.509   3.175   3.930 -0.9091  0.1444 -0.2756
  596SOL    HW2 1970   0.489   3.306   3.835 -0.5540  0.4989  0.1314
  597SOL     OW 1971   1.180   2.063   0.364  0.2149  0.1555  0.2032
  597SOL    HW1 1972   1.277   2.074   0.342  0.3145  0.1971  0.6530
  597SOL    HW2 1973   1.134   2.016   0.288  0.9351 -1.4207  0.7015
  598SOL     OW 1974   2.376   4.023   0.629  0.0981  0.4327  0.7664
  598SOL    HW1 1975   2.376   3.925   0.649  0.0370  0.2503 -0.0752
  598SOL    HW2 1976   2.282   4.057   0.628  0.1367  0.5648  1.3380
  599SOL     OW 1977   2.387   2.916   3.041  0.0024 -1.0841 -0.3133
  599SOL    HW1 1978   2.428   2.994   2.994 -2.1842 -0.0148 -0.5602
  599SOL    HW2 1979   2.459   2.864   3.087  1.5214  1.1208 -0.0427
  600SOL     OW 1980   0.819   1.723   0.949  0.3379  0.0815 -0.1160
  600SOL    HW1 1981   0.897   1.670   0.981  0.1895  0.8148  1.5036
  600SOL    HW2 1982   0.745   1.659   0.926  1.2761 -0.5981 -1.4182
  601SOL     OW 1983   3.907   3.268   4.140  0.1597 -0.3838 -0.3812
  601SOL    HW1 1984   3.826   3.227   4.182  0.0396 -0.2459 -0.4775
  601SOL    HW2 1985   3.879   3.336   4.073  0.3594  0.1186  0.0328
  602SOL     OW 1986   2.483   2.019   3.803  0.2188 -0.2028  0.9406
  602SOL    HW1 1987   2.505   1.976   3.890 -0.4776 -0.0089  1.2143
  602SOL    HW2 1988   2.436   1.954   3.744 -0.9608  0.1924  1.4070
  603SOL     OW 1989   4.189   3.395   1.717  0.0568  0.0695 -0.2580
  603SOL    HW1 1990   4.155   3.391   1.811  1.8515  0.4382  0.4573
  603SOL    HW2 1991   4.285   3.423   1.719  0.0149  0.4527 -2.2422
  604SOL     OW 1992   3.433   2.799   0.472  0.2757 -0.1373 -0.1225
  604SOL    HW1 1993   3.414   2.702   0.487  1.5614 -0.6058 -1.3812
  604SOL    HW2 1994   3.524   2.810   0.433  0.7515  1.6958  1.3175
  605SOL     OW 1995   0.003   2.848   2.650 -0.4907  0.1943  0.0027
  605SOL    HW1 1996   0.089   2.875   2.692 -0.7074 -0.1950  0.7198
  605SOL    HW2 1997   0.017   2.831   2.552  0.2724 -0.0026  0.1441
  606SOL     OW 1998   1.309   2.526   2.571  0.3917  0.7952 -0.4596
  606SOL    HW1 1999   1.356   2.481   2.496 -0.4314  0.1507 -0.6002
  606SOL    HW2 2000   1.293   2.622   2.548  2.5325  1.3218  0.0128
  607SOL     OW 2001   0.923   1.385   3.372  0.1091 -0.7439  0.3594
  607SOL    HW1 2002   0.949   1.292   3.345  0.7365 -0.1708 -1.1720
  607SOL    HW2 2003   1.005   1.441   3.380 -0.3029 -0.1654  0.6128
  608SOL     OW 2004   1.672   3.612   0.563  0.2350 -0.1257 -0.1410
  608SOL    HW1 2005   1.662   3.709   0.540  2.0234  0.1280 -0.0343
  608SOL    HW2 2006   1.763   3.598   0.603 -0.4343 -1.6640  0.8969
  609SOL     OW 2007   1.880   1.763   3.747  0.2474 -0.2453 -0.5719
  609SOL    HW1 2008   1.920   1.855   3.752  0.4919 -0.3845  0.1221
  609SOL    HW2 2009   1.938   1.699   3.797 -0.5009 -0.5750 -0.1067
  610SOL     OW 2010   2.687   3.570   1.639 -0.5158  0.3972 -0.3028
  610SOL    HW1 2011   2.600   3.595   1.681 -0.2476  0.5097  0.2033
  610SOL    HW2 2012   2.742   3.653   1.625 -0.4806  0.3246 -0.5845
  611SOL     OW 2013   3.693   0.927   2.655  0.5698 -0.3651  0.0463
  611SOL    HW1 2014   3.750   0.845   2.645 -1.1820 -1.5969 -0.2151
  611SOL    HW2 2015   3.725   0.997   2.590  1.7861 -1.0003 -0.0740
  612SOL     OW 2016   1.748   1.564   2.525  0.4305  0.1793  0.7487
  612SOL    HW1 2017   1.676   1.620   2.568 -0.4062 -1.3463  1.4399
  612SOL    HW2 2018   1.769   1.488   2.586 -1.7466 -2.8706 -1.9841
  613SOL     OW 2019   1.580   1.264   1.440  0.0716 -0.2766  0.2371
  613SOL    HW1 2020   1.639   1.319   1.382 -0.3940  2.0889  1.8733
  613SOL    HW2 2021   1.635   1.217   1.509  0.2413  0.5396  0.6728
  614SOL     OW 2022   3.723   2.561   3.614  0.4737  0.1188 -0.3870
  614SOL    HW1 2023   3.727   2.541   3.711  1.1815  4.3992  0.6831
  614SOL    HW2 2024   3.792   2.506   3.566  2.2537  0.0905  2.0242
  615SOL     OW 2025   1.277   2.910   1.008  0.2125 -0.1719  0.2479
  615SOL    HW1 2026   1.207   2.904   0.936  1.0591  0.2993 -0.6284
  615SOL    HW2 2027   1.247   2.975   1.077 -0.6335 -0.6619  0.3602
  616SOL     OW 2028   1.966   2.007   3.772  0.3527 -0.4342  0.1245
  616SOL    HW1 2029   2.051   2.054   3.747  0.3036 -1.2004 -1.6432
  616SOL    HW2 2030   1.889   2.060   3.736  0.2647 -1.3958 -1.1943
  617SOL     OW 2031   1.862   2.673   0.014  0.1907 -0.5865 -0.4782
  617SOL    HW1 2032   1.918   2.619  -0.049  1.8531  0.2255  0.2416
  617SOL    HW2 2033   1.855   2.767  -0.019  1.5047 -0.0191  0.7261
  618SOL     OW 2034   3.318   0.503   3.060  0.7224  0.0395 -0.2461
  618SOL    HW1 2035   3.300   0.586   3.112  2.5345  1.0669 -1.1478
  618SOL    HW2 2036   3.253   0.496   2.985  0.2880  0.4013  0.0892
  619SOL     OW 2037   1.788   1.706   0.880  0.2756 -0.4815 -0.9482
  619SOL    HW1 2038   1.825   1.723   0.789 -0.4477  1.4282 -0.9335
  619SOL    HW2 2039   1.761   1.793   0.921  2.4277 -1.0306  1.9240
  620SOL     OW 2040   1.919   1.679   1.809 -0.5376  0.4057 -0.0528
  620SOL    HW1 2041   1.887   1.600   1.862 -2.2662  0.8944 -0.3129
  620SOL    HW2 2042   1.840   1.735   1.782  0.5254  1.4425 -1.1271
  621SOL     OW 2043   1.454   0.644   1.328  0.8108 -0.9350 -0.3350
  621SOL    HW1 2044   1.403   0.685   1.403  0.0004  0.6005 -1.6664
  621SOL    HW2 2045   1.547   0.681   1.328  0.1120  0.9708 -1.4755
  622SOL     OW 2046   3.580   2.244   2.113 -0.2130 -0.1183 -0.2300
  622SOL    HW1 2047   3.555   2.166   2.056  0.2063 -0.6980  0.3790
  622SOL    HW2 2048   3.498   2.301   2.127 -0.5399 -0.4879 -0.6038
  623SOL     OW 2049   0.573   2.802   1.486 -0.4607 -0.0974  0.1082
  623SOL    HW1 2050   0.588   2.711   1.446  0.4611  0.0108  0.2073
  623SOL    HW2 2051   0.489   2.800   1.540 -0.6960 -0.7653 -0.2692
  624SOL     OW 2052   1.989   2.523   4.077  0.5013  0.1110  0.6864
  624SOL    HW1 2053   1.974   2.424   4.083 -1.9578  0.3194 -0.5509
  624SOL    HW2 2054   2.009   2.547   3.982 -0.7701  0.9428  0.5970
  625SOL     OW 2055   3.821   1.810   2.677  0.0979 -0.2980  0.1892
  625SOL    HW1 2056   3.886   1.883   2.699  0.1221  0.4519 -2.1049
  625SOL    HW2 2057   3.751   1.805   2.749 -0.1488  2.2847  0.2296
  626SOL     OW 2058   3.520   0.892   3.534  0.7570 -0.9396 -0.0772
  626SOL    HW1 2059   3.526   0.807   3.482  0.4177 -0.3561 -1.0737
  626SOL    HW2 2060   3.526   0.970   3.472  0.9735 -0.2238  0.8164
  627SOL     OW 2061   1.827   3.258   0.271  0.0329  0.0569 -0.3974
  627SOL    HW1 2062   1.902   3.307   0.314  0.5667 -2.9238  2.4715
  627SOL    HW2 2063   1.863   3.195   0.203 -0.0222 -0.2834 -0.1144
  628SOL     OW 2064   1.789   1.219   3.372  0.3452  0.3618 -0.2540
  628SOL    HW1 2065   1.838   1.302   3.399 -0.6769  0.6517  0.7756
  628SOL    HW2 2066   1.751   1.232   3.281 -0.1111  1.1704  0.0405
  629SOL     OW 2067   2.380   1.847   1.275 -0.6967  0.6601 -0.3132
  629SOL    HW1 2068   2.451   1.913   1.297 -0.4970  0.5254 -0.5407
  629SOL    HW2 2069   2.318   1.837   1.352 -2.3727  3.1811 -1.2149
  630SOL     OW 2070   0.042   3.404   0.590  0.6951  0.4028  0.1043
  630SOL    HW1 2071   0.060   3.434   0.683 -0.6896  0.7186  0.2876
  630SOL    HW2 2072   0.047   3.482   0.528  0.8264  0.3315  0.0228
  631SOL     OW 2073   1.228   1.220   1.698 -0.4616 -0.7168 -0.4281
  631SOL    HW1 2074   1.318   1.194   1.732 -0.0939  0.3090 -0.5649
  631SOL    HW2 2075   1.180   1.274   1.768  0.4274  1.6775 -1.5680
  632SOL     OW 2076   3.186   2.937   0.433 -0.4074 -0.3998  0.3603
  632SOL    HW1 2077   3.271   2.885   0.435 -1.0487 -1.5717 -0.8045
  632SOL    HW2 2078   3.175   2.978   0.342 -1.3531 -0.7314  0.3181
  633SOL     OW 2079   4.037   3.910   0.154 -0.0025 -0.4171 -0.0705
  633SOL    HW1 2080   4.112   3.888   0.093  0.7129 -0.3345  0.7581
  633SOL    HW2 2081   4.005   4.003   0.135 -1.0503 -1.0579 -1.5727
  634SOL     OW 2082   1.350   2.814   1.309  0.0717  0.1113  0.0922
  634SOL    HW1 2083   1.253   2.835   1.315  0.3444  1.0109  2.0434
  634SOL    HW2 2084   1.395   2.884   1.253 -0.2073  0.4541  0.2910
  635SOL     OW 2085   2.803   2.448   1.355  0.3433 -0.1701  0.3146
  635SOL    HW1 2086   2.810   2.547   1.346  0.2589 -0.0165  1.7760
  635SOL    HW2 2087   2.743   2.425   1.431 -0.9414 -1.3765 -0.9939
  636SOL     OW 2088   1.860   2.294   0.093 -0.4632  0.5177  0.1463
  636SOL    HW1 2089   1.823   2.383   0.121  0.3240  1.1443 -0.7151
  636SOL    HW2 2090   1.867   2.234   0.173 -2.2938  0.7329  0.5141
  637SOL     OW 2091   2.682   3.014   3.161  0.0303 -0.4227  0.4175
  637SOL    HW1 2092   2.642   2.925   3.137 -0.8218  0.0992 -0.1165
  637SOL    HW2 2093   2.736   3.003   3.245  1.2977 -1.7955 -0.5287
  638SOL     OW 2094   1.713   2.562   0.203  0.0946  0.2745  0.3285
  638SOL    HW1 2095   1.663   2.628   0.259 -3.1168 -2.0978  0.5170
  638SOL    HW2 2096   1.750   2.609   0.122 -1.1230  2.4643  0.9709
  639SOL     OW 2097   4.181   1.754   1.447  0.0139  0.0322 -0.3265
  639SOL    HW1 2098   4.131   1.794   1.370 -0.0588 -0.9296 -0.7848
  639SOL    HW2 2099   4.266   1.805   1.461 -0.6605  1.1204 -0.1079
  640SOL     OW 2100   1.081   3.165   3.478 -0.2248  0.7231  0.4399
  640SOL    HW1 2101   1.135   3.083   3.499 -1.0721 -0.0127 -0.1855
  640SOL    HW2 2102   1.127   3.217   3.406  0.0939  0.5635  0.5276
  641SOL     OW 2103   3.115   1.500   0.950  0.3237  0.3881 -0.0306
  641SOL    HW1 2104   3.195   1.465   0.902  0.0664  0.9268 -0.8725
  641SOL    HW2 2105   3.135   1.592   0.985 -0.3980  1.1679 -1.5700
  642SOL     OW 2106   0.020   2.068   2.963 -0.3283 -0.0277  0.1194
  642SOL    HW1 2107  -0.019   1.995   2.906 -0.0890 -0.0497 -0.0150
  642SOL    HW2 2108  -0.054   2.110   3.016 -0.7513  0.8193 -1.1135
  643SOL     OW 2109   2.931   4.053   1.994  0.4308 -0.1576  0.0259
  643SOL    HW1 2110   2.881   4.034   2.079  1.0608 -0.7390  0.2800
  643SOL    HW2 2111   3.023   4.085   2.017  0.4676  0.0651 -0.4353
  644SOL     OW 2112   2.742   2.164   0.706 -0.2817  0.6814  0.4680
  644SOL    HW1 2113   2.648   2.173   0.740 -1.4863 -1.4882 -1.9898
  644SOL    HW2 2114   2.797   2.116   0.775 -0.6910  2.6159  2.2495
  645SOL     OW 2115   1.243   3.323   0.960  0.1132  0.6628  0.6835
  645SOL    HW1 2116   1.282   3.375   1.036 -0.5629  0.6207  1.0769
  645SOL    HW2 2117   1.186   3.384   0.904  1.7706  1.0320 -0.6676
  646SOL     OW 2118   2.501   3.526   2.031 -0.2077  0.0184 -0.1058
  646SOL    HW1 2119   2.583   3.539   1.975 -0.7572 -0.0208 -0.9214
  646SOL    HW2 2120   2.466   3.616   2.059  0.3930  0.0266  0.6815
  647SOL     OW 2121   0.297   1.665   0.395 -0.9743  0.1295  0.3537
  647SOL    HW1 2122   0.360   1.681   0.471 -0.0276 -2.3719  0.1733
  647SOL    HW2 2123   0.279   1.752   0.350  2.6523  0.9706  0.1963
  648SOL     OW 2124   2.302   0.442   1.562  0.1864 -0.2508 -0.2254
  648SOL    HW1 2125   2.299   0.344   1.584  0.6560 -0.2081  0.0469
  648SOL    HW2 2126   2.216   0.469   1.518  0.1478 -0.8407 -0.5231
  649SOL     OW 2127   2.831   3.025   3.399 -0.2051  0.0934  0.4844
  649SOL    HW1 2128   2.920   3.041   3.356 -0.8153 -0.4844 -1.0428
  649SOL    HW2 2129   2.815   3.096   3.467  0.0228  2.1247 -1.4600
  650SOL     OW 2130   3.659   1.745   3.186  0.0732 -0.2358  0.2404
  650SOL    HW1 2131   3.742   1.713   3.233  0.1693 -0.5832 -0.1618
  650SOL    HW2 2132   3.593   1.776   3.254  0.4284 -0.2084  0.5786
  651SOL     OW 2133   3.961   2.865   1.996 -0.1595  0.1230 -0.0945
  651SOL    HW1 2134   4.052   2.851   1.957  0.2675 -0.2418  0.9858
  651SOL    HW2 2135   3.895   2.875   1.922  0.5147 -1.1843 -0.9271
  652SOL     OW 2136   0.153   2.377   2.484  0.4616 -0.6677  0.7108
  652SOL    HW1 2137   0.152   2.289   2.437  0.3204 -0.4314  0.2644
  652SOL    HW2 2138   0.109   2.446   2.427  1.5213 -0.0669  0.5870
  653SOL     OW 2139   3.016   2.809   1.906  0.0975  0.1458  0.1208
  653SOL    HW1 2140   3.033   2.722   1.952 -1.5679  1.0696  2.7011
  653SOL    HW2 2141   3.092   2.871   1.923  0.6924 -0.3505 -0.6475
  654SOL     OW 2142   3.340   0.284   0.844  0.3402 -0.3241  0.4439
  654SOL    HW1 2143   3.297   0.363   0.800  2.2328  0.1757 -0.6188
  654SOL    HW2 2144   3.421   0.315   0.894  0.4525 -1.4622  0.9888
  655SOL     OW 2145   2.933   3.119   0.597 -0.1480  0.1398  1.0801
  655SOL    HW1 2146   2.991   3.063   0.656  1.5741  0.3078 -0.4064
  655SOL    HW2 2147   2.844   3.073   0.586 -0.8241  0.4000  4.2533
  656SOL     OW 2148   3.855   3.530   3.325 -0.4687 -0.0359  0.0318
  656SOL    HW1 2149   3.936   3.567   3.280 -0.3704  0.9320  0.9576
  656SOL    HW2 2150   3.796   3.487   3.257  0.2320  0.3310 -0.8294
  657SOL     OW 2151   2.810   2.479   3.298 -0.3600 -0.0094 -0.2352
  657SOL    HW1 2152   2.771   2.541   3.366 -0.0502 -0.8336  0.7100
  657SOL    HW2 2153   2.839   2.533   3.219 -1.1916  0.9019  0.0507
  658SOL     OW 2154   0.598   1.959   2.435  0.1644  0.2613  0.2161
  658SOL    HW1 2155   0.594   1.863   2.407  0.2023 -0.1228  1.4776
  658SOL    HW2 2156   0.530   1.974   2.507  2.6698  0.2196  2.7634
  659SOL     OW 2157   1.246   1.551   0.091 -0.1193  0.3931 -0.2282
  659SOL    HW1 2158   1.296   1.481   0.143 -0.6301  0.6294  0.6074
  659SOL    HW2 2159   1.148   1.533   0.100 -0.2134 -0.6153 -2.6104
  660SOL     OW 2160   3.402   2.747   1.353 -0.3031  0.6329 -0.0060
  660SOL    HW1 2161   3.436   2.702   1.435 -1.3556 -2.6512 -1.1854
  660SOL    HW2 2162   3.305   2.767   1.364 -0.0470  1.8518  0.1632
  661SOL     OW 2163   1.662   1.926   0.996 -0.4884 -0.1188 -0.1665
  661SOL    HW1 2164   1.664   1.900   1.092 -1.8243  0.8813  0.1609
  661SOL    HW2 2165   1.739   1.988   0.977  1.3050 -2.2742 -0.4036
  662SOL     OW 2166   0.071   1.956   2.164 -0.8252  0.4845 -0.2491
  662SOL    HW1 2167   0.122   1.883   2.211 -1.1604  0.9340  0.8305
  662SOL    HW2 2168  -0.027   1.943   2.180 -0.9818  0.3656 -1.2457
  663SOL     OW 2169   3.876   2.881   3.562 -0.1638  0.3605  0.1143
  663SOL    HW1 2170   3.944   2.812   3.588 -0.4515 -0.3295 -0.8858
  663SOL    HW2 2171   3.916   2.943   3.495 -0.7535 -0.5879 -1.1603
  664SOL     OW 2172   1.921   3.002   3.968  0.2095 -0.2438 -0.1602
  664SOL    HW1 2173   1.945   3.096   3.943 -0.2194 -0.0651  0.0748
  664SOL    HW2 2174   1.885   2.955   3.888 -0.7123  0.1749 -0.0066
  665SOL     OW 2175   1.293   1.145   3.070 -0.4047  0.1899  0.9182
  665SOL    HW1 2176   1.369   1.081   3.066 -1.4264 -0.9807 -0.7382
  665SOL    HW2 2177   1.247   1.135   3.158  0.6714  0.1209  1.4889
  666SOL     OW 2178   2.629   2.364   1.549 -0.0148  0.4263 -0.3394
  666SOL    HW1 2179   2.538   2.401   1.567 -0.2024 -0.1986  0.0112
  666SOL    HW2 2180   2.632   2.268   1.578  0.7061  0.3983 -0.4956
  667SOL     OW 2181   2.712   2.412   1.101  0.7445 -0.1185  0.4763
  667SOL    HW1 2182   2.747   2.416   1.195  0.6334 -3.2567  0.7528
  667SOL    HW2 2183   2.769   2.350   1.048 -0.8735 -0.6264 -0.7352
  668SOL     OW 2184   1.252   1.215   3.360  0.1029 -0.0415  0.2454
  668SOL    HW1 2185   1.342   1.173   3.375  0.0787 -1.1543 -2.2244
  668SOL    HW2 2186   1.183   1.165   3.413  0.4720 -1.5276 -0.5983
  669SOL     OW 2187   1.544   4.016   0.493  0.0734 -0.0904  0.0279
  669SOL    HW1 2188   1.485   3.946   0.453 -2.2927  0.9368  1.4427
  669SOL    HW2 2189   1.500   4.105   0.483  1.9085  0.8939  0.2767
  670SOL     OW 2190   1.315   0.101   3.398 -0.2979  0.5690 -0.5639
  670SOL    HW1 2191   1.414   0.103   3.412 -0.3304 -0.2781 -0.1266
  670SOL    HW2 2192   1.270   0.088   3.487 -0.8251  1.3643 -0.7072
  671SOL     OW 2193   0.693   3.306   1.849  0.4402  1.1013 -0.2602
  671SOL    HW1 2194   0.738   3.231   1.899 -1.1381  0.3611  0.1242
  671SOL    HW2 2195   0.708   3.391   1.899  2.1548  1.0599 -0.6303
  672SOL     OW 2196   4.182   0.462   1.715  0.3780  0.0652 -0.7570
  672SOL    HW1 2197   4.087   0.449   1.744  0.2308 -0.0272 -1.2810
  672SOL    HW2 2198   4.237   0.485   1.795  0.4951 -2.8157  0.1167
  673SOL     OW 2199   3.313   2.235   1.525  0.4137  0.7950 -0.2767
  673SOL    HW1 2200   3.341   2.239   1.621 -2.1015  2.8582  0.4695
  673SOL    HW2 2201   3.268   2.321   1.500  1.4282  0.5281 -3.5002
  674SOL     OW 2202   0.620   3.681   3.821  0.3894 -0.4569  0.4176
  674SOL    HW1 2203   0.631   3.758   3.758 -1.2328  0.0714  0.7440
  674SOL    HW2 2204   0.531   3.688   3.866  1.4827 -0.8243  2.7726
  675SOL     OW 2205   4.216   3.140   1.046  0.5922 -0.2913  0.5533
  675SOL    HW1 2206   4.278   3.212   1.014  0.8536 -0.4862  0.6236
  675SOL    HW2 2207   4.172   3.099   0.966  0.5341 -0.1375  0.5043
  676SOL     OW 2208   3.269   2.580   1.702  0.5665 -0.4186 -0.1342
  676SOL    HW1 2209   3.202   2.575   1.776  1.1469 -1.4131  0.3385
  676SOL    HW2 2210   3.232   2.533   1.621  0.9638 -1.5978  0.3526
  677SOL     OW 2211   2.104   2.062   4.065  0.0348  0.1931 -0.2301
  677SOL    HW1 2212   2.016   2.107   4.079 -0.4280 -0.4585 -0.9461
  677SOL    HW2 2213   2.153   2.109   3.992 -0.4530 -0.4285 -0.9846
  678SOL     OW 2214   2.097   1.307   1.418  0.4522  0.1113  0.0907
  678SOL    HW1 2215   2.165   1.337   1.352  0.5587 -0.7294 -0.1834
  678SOL    HW2 2216   2.132   1.323   1.511  0.9264 -0.1054 -0.0508
  679SOL     OW 2217   2.538   2.548   0.770  0.1657  0.2970  0.6719
  679SOL    HW1 2218   2.535   2.500   0.683  1.3222 -0.1242  0.8416
  679SOL    HW2 2219   2.633   2.552   0.802 -0.2983 -0.0606  2.1833
  680SOL     OW 2220   3.052   3.275   1.577 -0.0443  0.2158 -0.3805
  680SOL    HW1 2221   2.983   3.235   1.516 -0.4351 -2.6784  1.7429
  680SOL    HW2 2222   3.133   3.217   1.576  0.1771  0.4569  1.3342
  681SOL     OW 2223   4.068   2.160   3.099  0.2394 -0.1776  0.8706
  681SOL    HW1 2224   4.125   2.208   3.166 -1.3031  0.8687  1.4974
  681SOL    HW2 2225   4.047   2.222   3.024 -0.1257 -0.5290  0.6803
  682SOL     OW 2226   4.105   2.515   2.020  0.2456  0.2380 -0.4254
  682SOL    HW1 2227   4.069   2.509   2.113  0.8146  0.5910 -0.1779
  682SOL    HW2 2228   4.132   2.609   2.001  0.9213  0.0066 -0.6445
  683SOL     OW 2229   4.200   3.057   2.322 -0.2636  0.2435 -0.2606
  683SOL    HW1 2230   4.272   3.113   2.364 -0.2719 -0.2234  0.3765
  683SOL    HW2 2231   4.224   2.961   2.330 -0.5559  0.1187 -0.8044
  684SOL     OW 2232   1.646   1.629   4.172  0.4251 -0.4287 -0.2603
  684SOL    HW1 2233   1.632   1.591   4.263  2.0034  0.8480  0.5613
  684SOL    HW2 2234   1.743   1.626   4.149  0.1800  0.1937 -1.4677
  685SOL     OW 2235   1.899   2.908   0.897  0.2963  0.3231  0.1725
  685SOL    HW1 2236   1.995   2.894   0.921  0.6401 -0.1582 -1.3801
  685SOL    HW2 2237   1.889   2.902   0.798 -1.6593 -1.7256  0.4147
  686SOL     OW 2238   1.438   2.796   2.522  0.1844 -0.0365  0.2567
  686SOL    HW1 2239   1.447   2.888   2.559 -0.0233  0.0040  0.2060
  686SOL    HW2 2240   1.517   2.777   2.463 -0.0857  0.3484 -0.2412
  687SOL     OW 2241   1.352   2.361   3.752  0.2702 -0.4126 -0.0513
  687SOL    HW1 2242   1.310   2.352   3.662 -0.3082  0.3913  0.1244
  687SOL    HW2 2243   1.417   2.286   3.766  0.5535 -0.4099 -1.2331
  688SOL     OW 2244   3.313   3.094   2.260 -0.1025  0.0261 -0.1352
  688SOL    HW1 2245   3.286   3.045   2.178 -0.6578 -0.9393  0.5988
  688SOL    HW2 2246   3.397   3.054   2.296 -0.2689 -0.0485  0.1748
  689SOL     OW 2247   0.877   3.972   1.374 -0.0685 -0.0002 -0.1772
  689SOL    HW1 2248   0.865   3.904   1.446 -1.9461 -1.0119 -1.3363
  689SOL    HW2 2249   0.942   3.937   1.307  0.9393  0.5179  0.5079
  690SOL     OW 2250   0.944   1.739   3.053  0.2576 -0.1665 -0.5913
  690SOL    HW1 2251   0.887   1.662   3.083 -1.4669 -0.3532 -3.8408
  690SOL    HW2 2252   1.031   1.737   3.103 -0.5637 -2.9107  0.9742
  691SOL     OW 2253   1.782   1.257   1.633  0.1900  0.0093 -0.0367
  691SOL    HW1 2254   1.706   1.285   1.692 -0.0556 -1.6014  0.4343
  691SOL    HW2 2255   1.820   1.339   1.589 -1.4818  0.9119  0.1046
  692SOL     OW 2256   1.049   1.563   0.977 -0.3934  0.1067 -0.1403
  692SOL    HW1 2257   1.104   1.531   1.054 -0.5334  0.6327  0.1807
  692SOL    HW2 2258   1.040   1.489   0.911  1.0810  0.1419 -0.4223
  693SOL     OW 2259   0.225   2.613   3.888  0.1851  0.1753 -0.1430
  693SOL    HW1 2260   0.236   2.524   3.843 -0.3170 -0.1782  0.4124
  693SOL    HW2 2261   0.161   2.603   3.965 -0.2923  1.1348 -0.4022
  694SOL     OW 2262   1.288   1.950   2.752  0.8992 -0.6084  0.1081
  694SOL    HW1 2263   1.361   1.948   2.684 -0.9351 -0.0624 -1.9829
  694SOL    HW2 2264   1.237   1.865   2.748  0.0561 -0.1052 -0.0367
  695SOL     OW 2265   3.911   2.587   0.289 -0.5724  0.3621  0.0849
  695SOL    HW1 2266   3.986   2.596   0.354 -0.7814  1.8471  0.1449
  695SOL    HW2 2267   3.948   2.591   0.196 -0.5389  0.7534  0.1143
  696SOL     OW 2268   2.196   3.827   2.106  0.4245 -0.5288 -0.0982
  696SOL    HW1 2269   2.291   3.798   2.113  0.7676  0.1967 -1.4585
  696SOL    HW2 2270   2.157   3.791   2.021  0.2109  1.1274 -0.7426
  697SOL     OW 2271   0.956   0.144   1.265 -0.1517  0.3080  0.0655
  697SOL    HW1 2272   0.974   0.087   1.345  1.6345  2.6733  1.4985
  697SOL    HW2 2273   0.858   0.145   1.246 -0.5954 -0.5371  2.0801
  698SOL     OW 2274   1.597   1.279   2.106 -0.1946  0.5815 -0.0760
  698SOL    HW1 2275   1.519   1.216   2.101  0.2912  0.0181 -0.7375
  698SOL    HW2 2276   1.584   1.341   2.183 -1.6478  0.9684 -0.6112
  699SOL     OW 2277   3.080   0.194   0.954  0.0036 -0.3924  0.4685
  699SOL    HW1 2278   3.176   0.220   0.943 -0.0831  0.1163  0.8403
  699SOL    HW2 2279   3.062   0.173   1.050  0.1695 -2.3261  0.1155
  700SOL     OW 2280   3.160   3.074   2.482  0.1280  0.2293 -0.0411
  700SOL    HW1 2281   3.087   3.013   2.450  0.5992 -0.6448  0.4842
  700SOL    HW2 2282   3.212   3.107   2.403 -2.0687  2.5771 -0.6435
  701SOL     OW 2283   2.518   3.233   3.246  0.1560  0.1330  0.0269
  701SOL    HW1 2284   2.469   3.262   3.163  1.0282 -0.0435 -0.5675
  701SOL    HW2 2285   2.573   3.152   3.225 -0.3090 -0.4622  1.0252
  702SOL     OW 2286   4.034   2.675   3.674 -0.3754  0.4786  0.2221
  702SOL    HW1 2287   4.075   2.593   3.714 -1.9648 -0.1040  0.7348
  702SOL    HW2 2288   3.982   2.723   3.745 -1.0765  0.8634 -0.5462
  703SOL     OW 2289   0.852   1.479   2.659  0.4306  0.3008 -0.3143
  703SOL    HW1 2290   0.823   1.562   2.706  1.0572  0.4427 -0.1571
  703SOL    HW2 2291   0.805   1.472   2.571 -1.8797 -0.7291  0.9204
  704SOL     OW 2292   0.621   4.069   1.323  0.1118  0.2059 -0.0344
  704SOL    HW1 2293   0.718   4.055   1.346 -0.0779 -1.1492  0.0298
  704SOL    HW2 2294   0.608   4.164   1.293  1.0923  0.9449  1.7391
  705SOL     OW 2295   3.879   1.439   2.884 -0.5815  0.2597 -0.3144
  705SOL    HW1 2296   3.831   1.377   2.946  0.0129 -1.7205 -1.7505
  705SOL    HW2 2297   3.978   1.425   2.894 -0.4566 -2.0162 -3.4085
  706SOL     OW 2298   2.388   0.803   2.065  0.6265 -0.3255 -0.3366
  706SOL    HW1 2299   2.419   0.814   2.160  1.6534 -1.2821 -0.5420
  706SOL    HW2 2300   2.465   0.817   2.003  0.3528 -1.3629 -0.9354
  707SOL     OW 2301   3.771   4.246   1.634 -0.1239  0.5155 -0.2592
  707SOL    HW1 2302   3.690   4.255   1.575  1.1796  1.5088 -1.9928
  707SOL    HW2 2303   3.824   4.331   1.629  0.5354  0.2629  1.6577
  708SOL     OW 2304   1.347   3.887   1.337 -0.9860  0.4583  0.2980
  708SOL    HW1 2305   1.421   3.832   1.300 -2.4092 -0.8741 -0.6934
  708SOL    HW2 2306   1.316   3.846   1.423 -0.9852  0.6740  0.4029
  709SOL     OW 2307   2.532   1.608   1.219  0.2536 -0.8124 -0.2368
  709SOL    HW1 2308   2.626   1.644   1.221  0.1761 -0.6115  1.7338
  709SOL    HW2 2309   2.468   1.684   1.229 -0.0297 -1.1702  0.7255
  710SOL     OW 2310   3.733   2.110   2.708 -0.5300  0.3315 -0.0645
  710SOL    HW1 2311   3.687   2.155   2.631 -1.2205 -2.2078 -1.2545
  710SOL    HW2 2312   3.665   2.059   2.761  0.4221 -0.6872  0.2042
  711SOL     OW 2313   2.448   2.449   1.124  0.1851  0.6890  0.1747
  711SOL    HW1 2314   2.546   2.430   1.120  0.2479  1.1932 -1.1821
  711SOL    HW2 2315   2.402   2.404   1.048 -0.5262  1.0931  0.3516
  712SOL     OW 2316   2.829   2.518   2.035  0.1754  0.1521 -0.7296
  712SOL    HW1 2317   2.737   2.505   1.998 -1.3439 -0.0745  2.7625
  712SOL    HW2 2318   2.831   2.602   2.090  1.3681 -1.0193  1.1088
  713SOL     OW 2319   1.424   1.572   0.879  0.1848  0.2734 -0.0450
  713SOL    HW1 2320   1.374   1.580   0.793 -0.6688  0.2748  0.4381
  713SOL    HW2 2321   1.490   1.646   0.886 -1.2541  1.5934  0.2607
  714SOL     OW 2322   1.012   4.203   1.431 -0.0898  0.0675 -0.2879
  714SOL    HW1 2323   0.952   4.135   1.389 -1.7562  0.6414  1.0435
  714SOL    HW2 2324   1.107   4.171   1.426 -0.8712 -2.7649  0.9957
  715SOL     OW 2325   1.102   4.008   2.145 -0.2484 -0.2217 -0.4862
  715SOL    HW1 2326   1.050   4.038   2.065 -2.6694 -0.6786  0.8112
  715SOL    HW2 2327   1.091   3.909   2.156  1.7158 -0.4969 -0.6671
  716SOL     OW 2328   1.450   3.979   1.814  0.3557  0.4987 -0.2868
  716SOL    HW1 2329   1.469   3.897   1.868  0.0479  0.3606 -0.3862
  716SOL    HW2 2330   1.411   4.049   1.874  0.7116  0.6090 -0.1820
  717SOL     OW 2331   3.208   2.561   2.433  0.6345  0.9792  0.0745
  717SOL    HW1 2332   3.152   2.545   2.514 -0.5686  1.5271 -0.6331
  717SOL    HW2 2333   3.247   2.653   2.437  1.8848  0.4544  0.7712
  718SOL     OW 2334   3.359   2.017   3.529  0.0944  0.0882  0.5008
  718SOL    HW1 2335   3.329   2.085   3.463  0.2568 -1.2432 -1.0076
  718SOL    HW2 2336   3.279   1.971   3.568  0.0197  0.3506  0.6560
  719SOL     OW 2337   0.128   2.398   4.190  0.2475 -0.2007 -0.0340
  719SOL    HW1 2338   0.178   2.438   4.266 -0.0963  1.1458 -0.4885
  719SOL    HW2 2339   0.070   2.468   4.148  0.7972 -0.7661 -1.8335
  720SOL     OW 2340   2.658   3.963   1.766 -0.3484 -0.0236  0.0578
  720SOL    HW1 2341   2.637   4.002   1.677 -1.3352  2.1571  1.1910
  720SOL    HW2 2342   2.739   3.905   1.757 -0.2475  0.3660 -2.1779
  721SOL     OW 2343   2.996   2.022   1.369 -0.0423  0.3559 -0.3086
  721SOL    HW1 2344   2.957   1.994   1.457  0.3525  0.6798 -0.0277
  721SOL    HW2 2345   3.022   2.119   1.374  0.6248  0.1929 -0.5528
  722SOL     OW 2346   1.365   0.701   1.058 -0.1521 -0.3215  0.6536
  722SOL    HW1 2347   1.380   0.711   1.157 -0.4352  1.4631  0.5548
  722SOL    HW2 2348   1.447   0.730   1.010  1.4815 -4.6925  0.3220
  723SOL     OW 2349   1.072   2.158   2.317  0.0860  0.0757 -0.3499
  723SOL    HW1 2350   0.999   2.107   2.363 -0.1357  0.2452 -0.5119
  723SOL    HW2 2351   1.034   2.203   2.237  0.8854 -1.9272 -1.9563
  724SOL     OW 2352   1.514   0.011   1.451 -0.0710 -0.3696  0.7016
  724SOL    HW1 2353   1.535  -0.053   1.525 -1.7183  0.2260  1.7469
  724SOL    HW2 2354   1.537   0.104   1.480  1.0523 -0.2972 -0.3018
  725SOL     OW 2355   1.137   1.130   1.037 -0.3043 -0.2778 -0.0454
  725SOL    HW1 2356   1.138   1.199   0.964  0.4099  0.0909  0.3010
  725SOL    HW2 2357   1.171   1.043   1.000 -0.3475 -0.2036 -0.2629
  726SOL     OW 2358   1.247   2.687   0.714  0.4505 -0.5184  0.1824
  726SOL    HW1 2359   1.251   2.615   0.783  0.8316 -1.2363 -0.5733
  726SOL    HW2 2360   1.293   2.656   0.631  1.0084  0.7709 -0.0103
  727SOL     OW 2361   0.667   3.502   0.846  0.0344  0.3540 -0.2961
  727SOL    HW1 2362   0.740   3.519   0.779 -0.3623  1.2003 -0.5299
  727SOL    HW2 2363   0.592   3.567   0.830 -0.7203 -0.4114  0.0217
  728SOL     OW 2364   0.778   3.286   3.959  0.1057 -0.2482 -0.1884
  728SOL    HW1 2365   0.809   3.377   3.985  2.1055 -1.4353  1.9307
  728SOL    HW2 2366   0.682   3.291   3.931 -0.0499  2.3798  0.5490
  729SOL     OW 2367   4.102   4.179   4.091 -0.1258 -0.3347 -0.3027
  729SOL    HW1 2368   4.150   4.226   4.017  0.2891  0.8378  0.6731
  729SOL    HW2 2369   4.003   4.182   4.074  0.0259 -2.3918 -2.1073
  730SOL     OW 2370   3.733   3.389   1.244  1.0146 -0.2758 -0.0522
  730SOL    HW1 2371   3.784   3.303   1.253  1.1449 -0.2769 -0.7408
  730SOL    HW2 2372   3.664   3.393   1.316 -0.7962 -2.2205 -1.5350
  731SOL     OW 2373   3.399   2.127   1.093  0.2120  0.0014  0.1395
  731SOL    HW1 2374   3.300   2.131   1.110  0.0329 -0.8778 -0.5609
  731SOL    HW2 2375   3.414   2.118   0.994  0.9027 -1.4436  0.3450
  732SOL     OW 2376   0.132   0.880   2.653  0.3885 -0.4815  0.2196
  732SOL    HW1 2377   0.198   0.920   2.717  2.2281  1.3947 -2.6254
  732SOL    HW2 2378   0.168   0.792   2.620 -0.5360 -1.4241  1.6280
  733SOL     OW 2379   1.344   3.323   3.939  0.2894 -0.3267  0.2907
  733SOL    HW1 2380   1.363   3.405   3.993  1.1840 -0.4325  0.1383
  733SOL    HW2 2381   1.262   3.340   3.884 -0.1980  0.0502  1.1103
  734SOL     OW 2382   3.968   1.324   2.244 -0.2671  0.1238  0.3819
  734SOL    HW1 2383   3.897   1.286   2.185 -0.2864  1.1613 -0.2984
  734SOL    HW2 2384   4.048   1.348   2.188  0.1890  0.0207  0.9691
  735SOL     OW 2385   3.339   1.686   3.014  0.6158  0.2038  0.4744
  735SOL    HW1 2386   3.427   1.642   3.029  0.1758 -0.7520  0.3342
  735SOL    HW2 2387   3.334   1.719   2.920  1.1962  1.1514  0.7627
  736SOL     OW 2388   2.185   3.524   1.732 -0.5063 -0.0709  0.8184
  736SOL    HW1 2389   2.225   3.449   1.786  1.3828 -1.0332 -1.7021
  736SOL    HW2 2390   2.119   3.486   1.667  2.6664 -0.2756 -2.6376
  737SOL     OW 2391   3.943   3.393   1.596 -0.0057 -0.1333  0.0006
  737SOL    HW1 2392   4.037   3.419   1.618  0.2800  0.0735 -1.3276
  737SOL    HW2 2393   3.907   3.457   1.527 -0.9063 -0.5666  0.0570
  738SOL     OW 2394   2.466   0.836   1.696  0.8691  0.0842  0.2692
  738SOL    HW1 2395   2.457   0.924   1.741 -1.2531  0.7353 -1.2503
  738SOL    HW2 2396   2.423   0.765   1.752 -1.8645  0.9039 -0.5964
  739SOL     OW 2397   1.339   0.967   1.854 -0.2717  0.1933  0.4528
  739SOL    HW1 2398   1.318   0.876   1.817  1.5860 -0.1347  0.1065
  739SOL    HW2 2399   1.284   0.983   1.936 -3.1944  0.2060 -1.3853
  740SOL     OW 2400   0.026   2.401   3.481  0.6664  0.6710  0.4334
  740SOL    HW1 2401   0.012   2.383   3.383 -0.2632  1.8257  0.3235
  740SOL    HW2 2402   0.088   2.333   3.519 -0.5342 -1.0311 -0.5162
  741SOL     OW 2403   1.994   0.717   3.479  1.0020  0.7852 -0.3366
  741SOL    HW1 2404   1.935   0.797   3.492 -0.5600 -0.4353  0.3599
  741SOL    HW2 2405   2.026   0.715   3.384  0.3822  1.7750 -0.5827
  742SOL     OW 2406   2.285   1.791   1.539 -0.6579 -0.6130  0.2585
  742SOL    HW1 2407   2.303   1.839   1.626 -0.2082  1.0704 -0.7217
  742SOL    HW2 2408   2.188   1.768   1.534 -0.4658 -1.9397  1.7719
  743SOL     OW 2409   2.514   1.291   1.559  0.1592 -0.9644 -0.1821
  743SOL    HW1 2410   2.509   1.391   1.558 -0.6179 -1.0001 -1.5623
  743SOL    HW2 2411   2.600   1.263   1.515  0.3993 -0.9071  0.2467
  744SOL     OW 2412   3.253   1.525   1.691 -0.0181  0.0443  0.4728
  744SOL    HW1 2413   3.166   1.494   1.653  0.8383 -0.4568 -1.2004
  744SOL    HW2 2414   3.325   1.460   1.666  1.2005  1.5303 -0.0739
  745SOL     OW 2415   1.950   0.850   1.728  0.0694  0.1806  0.1775
  745SOL    HW1 2416   1.915   0.784   1.794 -1.3728  1.4604  0.7674
  745SOL    HW2 2417   1.875   0.908   1.697  1.2933  1.6600 -0.1579
  746SOL     OW 2418   3.703   1.234   2.096 -0.4394 -0.7138  0.5999
  746SOL    HW1 2419   3.631   1.301   2.108 -0.0843 -0.4521  1.3017
  746SOL    HW2 2420   3.737   1.239   2.002 -0.1348  0.3664  0.7578
  747SOL     OW 2421   4.007   1.585   3.597 -0.3369 -0.8102  0.3681
  747SOL    HW1 2422   3.962   1.497   3.612 -2.9067  0.6243  2.0551
  747SOL    HW2 2423   4.013   1.633   3.684 -0.3192  1.2272 -0.7003
  748SOL     OW 2424   0.009   2.735   2.017  0.0339 -0.5874  0.1362
  748SOL    HW1 2425   0.096   2.700   1.984  0.5620  2.0850 -1.6646
  748SOL    HW2 2426   0.016   2.834   2.030 -1.6473 -0.7865  3.8030
  749SOL     OW 2427   0.468   3.179   2.253  0.1837  0.9281  0.0472
  749SOL    HW1 2428   0.495   3.188   2.349  0.2615 -1.9526  0.3874
  749SOL    HW2 2429   0.548   3.196   2.195  1.6224 -2.3647  0.8230
  750SOL     OW 2430   1.142   1.012   3.484 -0.2400 -0.3159  0.2622
  750SOL    HW1 2431   1.156   0.913   3.491 -2.1275 -0.6053  0.3787
  750SOL    HW2 2432   1.072   1.040   3.550 -1.5239  0.6882 -1.4420
  751SOL     OW 2433   2.402   4.169   1.723 -0.5643 -0.3902  0.4532
  751SOL    HW1 2434   2.415   4.243   1.789 -0.8802  0.2531 -0.1857
  751SOL    HW2 2435   2.482   4.164   1.663  0.9185 -2.6813  2.4742
  752SOL     OW 2436   0.395   3.994   2.592 -0.2829 -0.5867  0.5271
  752SOL    HW1 2437   0.474   3.997   2.532  0.2620 -1.3215  1.1959
  752SOL    HW2 2438   0.380   4.085   2.632 -0.4048 -0.1976 -0.3809
  753SOL     OW 2439   0.381   1.405   0.851 -0.2182 -0.0091 -0.0830
  753SOL    HW1 2440   0.287   1.371   0.850  0.2090 -1.3286  1.4947
  753SOL    HW2 2441   0.443   1.330   0.825  0.4441  0.7780 -0.8497
  754SOL     OW 2442   2.869   4.216   1.542 -0.1488 -0.1464  0.2009
  754SOL    HW1 2443   2.933   4.289   1.518 -0.1935 -0.2858 -0.3456
  754SOL    HW2 2444   2.899   4.173   1.627 -0.4734  0.9224  0.8727
  755SOL     OW 2445   3.243   2.954   2.029 -0.1891 -0.0606 -0.2622
  755SOL    HW1 2446   3.223   3.034   1.973  0.6620 -0.4737 -1.1882
  755SOL    HW2 2447   3.323   2.906   1.991  0.9025  0.0661  1.7297
  756SOL     OW 2448   0.972   3.427   2.049  0.0783 -0.2652 -0.0704
  756SOL    HW1 2449   0.974   3.358   2.123  0.5218  1.2808  1.4299
  756SOL    HW2 2450   1.059   3.424   2.000  0.3774 -0.3233  0.4456
  757SOL     OW 2451   2.217   2.721   2.998  0.2454  0.4277 -0.1806
  757SOL    HW1 2452   2.285   2.791   3.019  0.6611 -0.0094 -0.0419
  757SOL    HW2 2453   2.171   2.744   2.913  0.3274  0.9044 -0.0977
  758SOL     OW 2454   2.477   3.791   2.125 -0.4330 -0.0835  0.5570
  758SOL    HW1 2455   2.486   3.874   2.071 -2.7541  2.1539  3.3059
  758SOL    HW2 2456   2.534   3.797   2.206  0.0480 -1.6254  0.3682
  759SOL     OW 2457   2.333   2.575   1.337  0.1826 -0.3802  0.1098
  759SOL    HW1 2458   2.379   2.509   1.277  1.0142  1.1209 -0.9485
  759SOL    HW2 2459   2.401   2.617   1.397  0.1417  1.4294 -1.0590
  760SOL     OW 2460   1.453   1.044   1.354  0.7721  0.4427 -0.3722
  760SOL    HW1 2461   1.496   1.132   1.372  0.0675  0.7894 -0.3465
  760SOL    HW2 2462   1.354   1.057   1.344  0.5978 -0.4197  0.1537
  761SOL     OW 2463   0.448   2.846   0.864  0.1509  0.3734 -0.2605
  761SOL    HW1 2464   0.436   2.935   0.907 -0.5844 -0.7059  1.9338
  761SOL    HW2 2465   0.544   2.819   0.868  0.2481  0.7304 -0.2165
  762SOL     OW 2466   0.345   1.480   3.986 -0.0727 -0.6694  0.5528
  762SOL    HW1 2467   0.349   1.551   4.057 -1.4896  1.8014 -1.6832
  762SOL    HW2 2468   0.437   1.460   3.954  0.3523  0.1113  1.2474
  763SOL     OW 2469   0.722   3.404   1.128 -0.1927 -0.1989 -0.0615
  763SOL    HW1 2470   0.729   3.307   1.104 -3.7106 -1.1839  2.1598
  763SOL    HW2 2471   0.673   3.453   1.056 -1.2189 -0.7793  0.2372
  764SOL     OW 2472   2.945   1.504   1.166 -0.4271  0.2538 -0.1794
  764SOL    HW1 2473   2.897   1.417   1.163 -0.1359  0.1003 -0.4592
  764SOL    HW2 2474   2.999   1.515   1.082 -0.1118  0.5011  0.0530
  765SOL     OW 2475   1.566   2.767   0.349  0.1822  0.3412  0.2773
  765SOL    HW1 2476   1.475   2.790   0.315 -0.1453 -0.8225  0.3409
  765SOL    HW2 2477   1.626   2.847   0.338 -0.3621  0.5537 -1.4226
  766SOL     OW 2478   0.639   3.456   2.332 -0.4351 -0.1338  0.6204
  766SOL    HW1 2479   0.673   3.490   2.420  1.6989 -2.3722  0.7863
  766SOL    HW2 2480   0.656   3.357   2.327 -2.3097 -0.4350 -1.5446
  767SOL     OW 2481   0.983   1.976   3.332  0.0344 -0.4480  0.2357
  767SOL    HW1 2482   1.059   2.001   3.393 -0.7834 -1.5297  1.7762
  767SOL    HW2 2483   1.016   1.912   3.264  1.1867  1.4891 -1.1462
  768SOL     OW 2484   1.987   1.336   3.700 -0.4080  0.2265  0.1704
  768SOL    HW1 2485   1.925   1.320   3.776  1.9910 -0.9811  1.9973
  768SOL    HW2 2486   2.044   1.255   3.685  0.6213  1.1921 -1.5473
  769SOL     OW 2487   4.222   1.660   3.432 -0.3558  0.2167 -0.5499
  769SOL    HW1 2488   4.138   1.640   3.480 -0.9583  3.8180  0.1559
  769SOL    HW2 2489   4.201   1.679   3.336 -0.1652  0.0031 -0.6354
  770SOL     OW 2490   3.590   0.515   2.611 -0.2835  0.1740  0.1529
  770SOL    HW1 2491   3.616   0.446   2.543 -0.4411  0.1775  0.0896
  770SOL    HW2 2492   3.542   0.470   2.687 -2.0328  0.4327 -0.7409
  771SOL     OW 2493   3.742   3.988   3.958 -0.4031 -0.2899 -0.0936
  771SOL    HW1 2494   3.792   3.973   4.044 -2.0531 -0.4874  0.8781
  771SOL    HW2 2495   3.743   3.904   3.905  1.1854  0.0156 -0.6261
  772SOL     OW 2496   0.035   3.759   3.096 -0.3311 -0.1787  0.5064
  772SOL    HW1 2497   0.014   3.848   3.056 -0.9699  0.2648  1.7919
  772SOL    HW2 2498   0.114   3.720   3.048 -0.1500  0.9837 -0.1917
  773SOL     OW 2499   3.371   1.768   2.742 -0.3437  0.7103 -0.0387
  773SOL    HW1 2500   3.405   1.708   2.669  0.2871  1.7097 -0.5822
  773SOL    HW2 2501   3.434   1.845   2.753 -0.7420  0.8815  1.1746
  774SOL     OW 2502   2.741   0.876   2.277 -0.3934  0.3032 -0.1671
  774SOL    HW1 2503   2.721   0.959   2.225 -1.4481 -0.4342 -0.9872
  774SOL    HW2 2504   2.725   0.894   2.374  2.6987  2.0319  0.1235
  775SOL     OW 2505   1.877   2.379   0.618  0.3081  0.1308  0.3991
  775SOL    HW1 2506   1.832   2.421   0.697  0.4825  0.5207  0.2943
  775SOL    HW2 2507   1.971   2.412   0.612  0.2599  0.2002 -0.0443
  776SOL     OW 2508   4.137   1.835   2.861 -0.2724 -1.1735  0.3678
  776SOL    HW1 2509   4.085   1.900   2.806  0.3002  0.0061  1.1756
  776SOL    HW2 2510   4.075   1.788   2.924 -0.4004  0.2969  1.3969
  777SOL     OW 2511   2.269   4.091   2.112 -0.2370 -0.1242  0.5762
  777SOL    HW1 2512   2.228   4.005   2.080 -0.0318  0.5670 -1.7417
  777SOL    HW2 2513   2.364   4.095   2.081 -0.1267  0.7658  1.0082
  778SOL     OW 2514   1.167   2.961   0.729  0.3829 -0.0182 -0.3185
  778SOL    HW1 2515   1.218   2.876   0.715  1.7902  0.9821 -1.5507
  778SOL    HW2 2516   1.089   2.963   0.668 -1.2482 -1.5673  1.5844
  779SOL     OW 2517   2.274   3.316   1.924  0.4342 -0.4401  0.0259
  779SOL    HW1 2518   2.341   3.376   1.969  0.9583  0.3856 -1.7741
  779SOL    HW2 2519   2.262   3.234   1.980  2.1565 -0.1386  0.9308
  780SOL     OW 2520   3.520   3.377   1.453  0.1701 -0.2488 -0.0749
  780SOL    HW1 2521   3.531   3.336   1.544  0.2460  1.3651  0.6801
  780SOL    HW2 2522   3.499   3.474   1.463  1.9775  0.3942 -1.8140
  781SOL     OW 2523   3.050   1.741   3.402  0.3597 -0.0331 -0.0967
  781SOL    HW1 2524   2.986   1.669   3.429 -3.4507  2.8738 -0.5231
  781SOL    HW2 2525   3.063   1.737   3.303  1.7805 -1.2214  0.0977
  782SOL     OW 2526   3.667   2.359   2.559  0.2643  0.5719  0.2446
  782SOL    HW1 2527   3.669   2.312   2.471 -1.0503  1.7656 -0.4762
  782SOL    HW2 2528   3.760   2.377   2.590  0.7744 -1.4601  0.0115
  783SOL     OW 2529   1.648   2.036   0.103 -0.7741  0.1491 -0.1299
  783SOL    HW1 2530   1.723   2.099   0.085  0.5163 -1.3689 -0.2849
  783SOL    HW2 2531   1.589   2.032   0.022 -0.2589  0.3512 -0.5237
  784SOL     OW 2532   2.752   0.439   1.167 -0.4970  0.0062 -0.3749
  784SOL    HW1 2533   2.653   0.434   1.159 -0.5637  1.1425 -0.4105
  784SOL    HW2 2534   2.777   0.505   1.237  0.2354  0.3541 -0.9444
  785SOL     OW 2535   2.928   0.902   4.115  0.0079 -0.1841  0.1402
  785SOL    HW1 2536   2.851   0.847   4.082  1.2701 -1.1259 -1.3377
  785SOL    HW2 2537   2.975   0.942   4.036  2.3892 -1.4843  0.8203
  786SOL     OW 2538   0.461   2.727   3.452 -0.6767 -0.0137 -0.0562
  786SOL    HW1 2539   0.422   2.635   3.455 -0.8024  0.0470  0.2003
  786SOL    HW2 2540   0.393   2.792   3.487 -0.3717  0.1018  0.3188
  787SOL     OW 2541   1.668   3.157   0.782  0.2397 -0.3684 -0.4055
  787SOL    HW1 2542   1.589   3.196   0.830  1.0991  0.2324  0.5637
  787SOL    HW2 2543   1.649   3.062   0.759 -0.6878 -0.2865 -0.0176
  788SOL     OW 2544   3.147   4.213   3.050 -0.2743 -0.0066  0.8188
  788SOL    HW1 2545   3.231   4.159   3.060 -0.2691 -0.1991 -0.1438
  788SOL    HW2 2546   3.122   4.217   2.953 -1.3507  0.0940  1.0865
  789SOL     OW 2547   3.941   1.368   3.239  0.0978 -0.0778 -0.1027
  789SOL    HW1 2548   4.004   1.307   3.287  0.7377 -0.2518 -1.1321
  789SOL    HW2 2549   3.871   1.314   3.193  0.0124  0.0244 -0.0926
  790SOL     OW 2550   3.148   0.029   2.780 -0.2497 -0.1090 -0.2771
  790SOL    HW1 2551   3.141   0.025   2.680  0.3108  1.8222 -0.4326
  790SOL    HW2 2552   3.238   0.065   2.805  0.3568 -2.3843  1.0114
  791SOL     OW 2553   3.781   3.452   3.938  0.3468 -0.4911 -0.3179
  791SOL    HW1 2554   3.800   3.550   3.928  0.9731 -0.6873 -1.1553
  791SOL    HW2 2555   3.718   3.423   3.866 -0.4949 -0.5495  0.4214
  792SOL     OW 2556   1.008   1.907   0.789  0.5311 -0.3402  0.2206
  792SOL    HW1 2557   0.929   1.927   0.846  0.5091 -0.1501  0.1231
  792SOL    HW2 2558   1.078   1.862   0.844  0.2823 -0.6779  0.2666
  793SOL     OW 2559   1.812   2.975   1.137 -0.6875 -0.0250  0.4591
  793SOL    HW1 2560   1.876   3.049   1.159  1.4784 -1.8960  0.8694
  793SOL    HW2 2561   1.825   2.947   1.042 -2.2104  0.7284 -0.0036
  794SOL     OW 2562   3.981   1.145   3.592  0.2049 -0.2757 -0.4130
  794SOL    HW1 2563   3.926   1.225   3.617  0.4499  0.1557 -1.2230
  794SOL    HW2 2564   3.923   1.063   3.597 -0.0814 -0.0446  0.2946
  795SOL     OW 2565   1.417   3.571   1.088  0.6874  0.1643 -0.0058
  795SOL    HW1 2566   1.453   3.661   1.112 -2.4628  1.2798  1.0176
  795SOL    HW2 2567   1.415   3.563   0.988  0.6414  1.3903 -0.1223
  796SOL     OW 2568   2.165   2.244   0.238  0.3997  0.4414 -0.5048
  796SOL    HW1 2569   2.177   2.161   0.184  0.1526 -0.9079  1.4217
  796SOL    HW2 2570   2.207   2.321   0.190  2.4484 -1.1481 -1.4090
  797SOL     OW 2571   3.809   0.023   0.250 -0.1395  0.0881 -0.2344
  797SOL    HW1 2572   3.709   0.023   0.241 -0.2049 -1.1481  0.3467
  797SOL    HW2 2573   3.835   0.088   0.321 -0.7644 -1.5388  1.5559
  798SOL     OW 2574   0.617   2.105   0.886 -0.2433 -0.3965 -0.5921
  798SOL    HW1 2575   0.685   2.171   0.855 -0.9350  0.4303 -0.3576
  798SOL    HW2 2576   0.540   2.104   0.823 -0.2234 -1.0253 -0.6215
  799SOL     OW 2577   0.133   1.872   3.161  0.6594 -0.3624 -0.4681
  799SOL    HW1 2578   0.101   1.932   3.089 -0.9913  1.7425  1.8666
  799SOL    HW2 2579   0.055   1.822   3.200  1.0712  0.3514  1.3841
  800SOL     OW 2580   0.957   1.032   1.817  0.2990 -0.3675  0.3697
  800SOL    HW1 2581   0.951   1.042   1.718 -4.2703 -2.0125  0.2568
  800SOL    HW2 2582   1.026   0.962   1.838  1.4068  0.0529 -1.5569
  801SOL     OW 2583   1.181   3.136   1.155 -1.1446  0.8173  0.5274
  801SOL    HW1 2584   1.179   3.202   1.079  0.3466  1.3663  0.9100
  801SOL    HW2 2585   1.210   3.184   1.238  1.4697 -0.5451  0.5030
  802SOL     OW 2586   2.614   0.322   1.797  0.1960 -0.1819 -0.8006
  802SOL    HW1 2587   2.613   0.371   1.710  0.4224  1.3743  0.0383
  802SOL    HW2 2588   2.590   0.386   1.871  1.6888 -1.0506  0.4880
  803SOL     OW 2589   1.814   1.305   3.892  0.5123 -0.6039  0.5878
  803SOL    HW1 2590   1.738   1.299   3.827  0.9957  0.0153 -0.0493
  803SOL    HW2 2591   1.783   1.353   3.974  0.1985 -0.3831  0.3446
  804SOL     OW 2592   1.749   0.998   1.592 -0.8772 -0.4495 -0.0132
  804SOL    HW1 2593   1.776   1.093   1.603 -1.0022 -0.6062  2.0121
  804SOL    HW2 2594   1.650   0.989   1.604 -0.9747 -0.7525 -0.9369
  805SOL     OW 2595   1.646   0.744   0.955  0.0137 -0.1917  0.0890
  805SOL    HW1 2596   1.742   0.716   0.950  0.3848  1.0442 -0.0503
  805SOL    HW2 2597   1.627   0.777   1.047  0.1845  1.1083 -0.3261
  806SOL     OW 2598   1.521   2.150   3.788 -0.2120  0.5506 -0.0644
  806SOL    HW1 2599   1.473   2.066   3.763 -1.2223  1.0396  0.1649
  806SOL    HW2 2600   1.597   2.165   3.725  0.2276 -0.7330  0.1310
  807SOL     OW 2601   2.143   2.028   0.087 -0.0997  0.5381 -0.3443
  807SOL    HW1 2602   2.130   2.034  -0.011 -0.6672 -0.0287 -0.3147
  807SOL    HW2 2603   2.197   1.946   0.108  0.0611  0.6835 -0.1918
  808SOL     OW 2604   3.207   1.858   1.387  0.5756  0.4777 -0.1283
  808SOL    HW1 2605   3.297   1.888   1.356  0.0516  0.0913 -2.1324
  808SOL    HW2 2606   3.140   1.931   1.370  0.4207  0.6566  1.0945
  809SOL     OW 2607   1.326   1.325   0.270 -0.3070 -0.8238  0.2208
  809SOL    HW1 2608   1.376   1.391   0.326 -0.8244  2.0039 -2.3842
  809SOL    HW2 2609   1.263   1.273   0.329 -0.7299  1.8225  2.2946
  810SOL     OW 2610   2.054   1.736   3.057 -0.0121  0.9445  0.6714
  810SOL    HW1 2611   2.061   1.698   3.149 -0.1477 -0.6941  0.0242
  810SOL    HW2 2612   2.035   1.834   3.064 -0.3157  0.7969  2.3773
  811SOL     OW 2613   0.590   1.854   1.014 -0.0878 -0.2402 -0.0862
  811SOL    HW1 2614   0.671   1.801   0.991  0.3846 -0.0323  1.0328
  811SOL    HW2 2615   0.593   1.941   0.965  1.5808  0.7644  1.6397
  812SOL     OW 2616   1.553   2.992   1.168 -0.2351 -0.3144  0.3344
  812SOL    HW1 2617   1.506   3.058   1.109 -0.3789 -1.1237 -0.4824
  812SOL    HW2 2618   1.645   2.976   1.133  0.3553  0.5806  1.4116
  813SOL     OW 2619   3.412   0.263   0.460 -0.3968 -0.2268  0.6572
  813SOL    HW1 2620   3.453   0.334   0.517  0.3632 -1.0357  1.1431
  813SOL    HW2 2621   3.347   0.305   0.398  0.2747  0.9408  0.7099
  814SOL     OW 2622   0.190   3.463   1.734  0.3707 -0.0963  0.0743
  814SOL    HW1 2623   0.263   3.460   1.803  0.6321  1.4225 -0.0868
  814SOL    HW2 2624   0.229   3.493   1.647 -0.2933 -0.1556 -0.2487
  815SOL     OW 2625   0.363   2.262   2.712  0.3691 -0.4665  0.0263
  815SOL    HW1 2626   0.304   2.267   2.792 -0.8545  0.1895 -0.8948
  815SOL    HW2 2627   0.320   2.308   2.635  1.3189 -1.4522 -1.1576
  816SOL     OW 2628   1.813   4.129   0.482  0.1934 -0.0579 -0.0048
  816SOL    HW1 2629   1.863   4.053   0.442 -1.0008 -0.4992 -0.7017
  816SOL    HW2 2630   1.714   4.111   0.477 -0.0586  0.2671  2.3220
  817SOL     OW 2631   2.019   0.254   1.604  0.4861  0.0872  0.4251
  817SOL    HW1 2632   1.980   0.315   1.673 -2.3413 -0.0217 -0.9238
  817SOL    HW2 2633   1.947   0.228   1.539  2.6494 -1.1074 -1.6392
  818SOL     OW 2634   3.532   1.081   3.341 -0.5231 -0.1023 -0.2459
  818SOL    HW1 2635   3.593   1.061   3.265 -1.2897  0.0183 -0.9070
  818SOL    HW2 2636   3.486   1.168   3.324 -0.7904 -0.1333  0.2951
  819SOL     OW 2637   2.761   4.141   4.010 -0.4970  0.6085 -0.3836
  819SOL    HW1 2638   2.832   4.107   3.948 -1.8966  1.5969 -2.6737
  819SOL    HW2 2639   2.778   4.107   4.102  2.0590 -0.4160 -1.1605
  820SOL     OW 2640   3.709   2.850   1.644  0.0071 -0.2664  0.0428
  820SOL    HW1 2641   3.722   2.816   1.551  1.4160  1.2070 -0.3581
  820SOL    HW2 2642   3.733   2.778   1.710 -0.9759 -1.3101 -0.7041
  821SOL     OW 2643   2.350   0.120   0.567 -0.2725 -0.7572 -0.6395
  821SOL    HW1 2644   2.276   0.122   0.500  0.0089  0.1190 -0.9365
  821SOL    HW2 2645   2.425   0.179   0.536 -0.2613 -0.0753  0.5907
  822SOL     OW 2646   1.352   3.616   0.813  1.2610 -0.1614  0.2313
  822SOL    HW1 2647   1.406   3.575   0.740  0.4750  0.2816 -0.6110
  822SOL    HW2 2648   1.390   3.706   0.835  0.2939  0.6064 -1.0829
  823SOL     OW 2649   1.689   3.185   2.698  0.3623  0.0319  0.0165
  823SOL    HW1 2650   1.773   3.129   2.697  0.5120  0.2542 -0.3338
  823SOL    HW2 2651   1.695   3.253   2.624  0.0299  0.2844  0.2220
  824SOL     OW 2652   3.907   2.746   2.770  0.0592  0.3247  0.1597
  824SOL    HW1 2653   3.941   2.824   2.718 -2.2818  1.1559 -0.2158
  824SOL    HW2 2654   3.816   2.767   2.806  0.2840 -1.4311  1.9100
  825SOL     OW 2655   0.332   2.461   3.443 -0.5552 -0.6735  0.3197
  825SOL    HW1 2656   0.423   2.432   3.413  0.6272  0.8904  2.1778
  825SOL    HW2 2657   0.285   2.384   3.485  0.8882 -0.9430  1.5059
  826SOL     OW 2658   4.126   3.088   1.307 -0.1197 -0.2829 -0.1429
  826SOL    HW1 2659   4.172   3.092   1.218  0.8137  0.1156  0.3494
  826SOL    HW2 2660   4.177   3.143   1.373 -2.5565  2.2144 -0.1237
  827SOL     OW 2661   2.132   0.189   0.325  0.3662  0.2716  0.0525
  827SOL    HW1 2662   2.191   0.268   0.341 -0.0106  0.3752  1.0266
  827SOL    HW2 2663   2.081   0.203   0.241  0.4931  0.9484  0.0777
  828SOL     OW 2664   0.182   3.487   2.395  0.1705  0.3428 -0.2391
  828SOL    HW1 2665   0.142   3.403   2.431  0.6405 -0.2079 -0.9626
  828SOL    HW2 2666   0.117   3.562   2.406 -0.9038 -0.4393 -1.0179
  829SOL     OW 2667   2.611   0.096   0.873  0.3247 -0.5368 -0.0286
  829SOL    HW1 2668   2.639   0.154   0.796  0.7981 -0.5476  0.1325
  829SOL    HW2 2669   2.511   0.088   0.873  0.2587  0.1771 -0.1293
  830SOL     OW 2670   2.781   1.108   0.163  0.1193 -0.2862 -0.5156
  830SOL    HW1 2671   2.869   1.067   0.139 -0.8849 -2.6640 -0.4322
  830SOL    HW2 2672   2.724   1.114   0.081 -0.2300 -0.3232 -0.2796
  831SOL     OW 2673   2.501   2.770   0.276  0.0887  0.5275  0.0632
  831SOL    HW1 2674   2.580   2.712   0.296 -0.4726 -0.8611 -1.5492
  831SOL    HW2 2675   2.526   2.839   0.208 -0.0710  0.1322 -0.3957
  832SOL     OW 2676   2.850   1.956   1.637  0.4132 -0.4360  0.2244
  832SOL    HW1 2677   2.860   1.863   1.601  0.0528 -1.0089  1.5271
  832SOL    HW2 2678   2.919   1.970   1.709 -0.5769 -0.2966  1.1742
  833SOL     OW 2679   0.556   1.415   4.213 -0.0049 -0.7382  0.3960
  833SOL    HW1 2680   0.475   1.362   4.238 -0.0145 -1.1240 -0.4297
  833SOL    HW2 2681   0.590   1.384   4.124 -0.5817  1.2460 -0.5879
  834SOL     OW 2682   0.155   2.953   1.161  0.2756  0.1193 -0.7372
  834SOL    HW1 2683   0.096   2.992   1.091 -0.4006 -0.6292 -0.5998
  834SOL    HW2 2684   0.165   3.019   1.236 -1.4650 -0.2152 -0.1618
  835SOL     OW 2685   1.789   3.844   4.086 -0.3439 -0.0830  0.5349
  835SOL    HW1 2686   1.858   3.805   4.024  1.2154  0.8733  1.5916
  835SOL    HW2 2687   1.773   3.780   4.161 -0.5884 -0.2754  0.3239
  836SOL     OW 2688   0.155   1.430   3.029  0.0439  0.2112  0.1972
  836SOL    HW1 2689   0.214   1.451   2.951  1.3387 -1.5157  0.6686
  836SOL    HW2 2690   0.204   1.450   3.114  0.3777 -2.1395  0.6091
  837SOL     OW 2691   2.810   1.694   1.264  0.0412  0.2821  0.4182
  837SOL    HW1 2692   2.837   1.781   1.222 -2.2096  0.2108 -1.3777
  837SOL    HW2 2693   2.867   1.620   1.227  1.1205  0.7997  1.0018
  838SOL     OW 2694   1.238   1.926   1.165  0.2271 -0.5737  0.0880
  838SOL    HW1 2695   1.306   1.994   1.139 -0.5086 -0.0872 -0.6173
  838SOL    HW2 2696   1.217   1.869   1.086 -0.0018 -0.8770  0.3655
  839SOL     OW 2697   1.720   1.819   0.240 -0.3848  0.1193 -0.6892
  839SOL    HW1 2698   1.659   1.887   0.200 -3.0442 -1.1663  0.8941
  839SOL    HW2 2699   1.800   1.808   0.181 -1.1735  2.5672 -2.3891
  840SOL     OW 2700   1.817   0.970   3.492  0.5771  0.2282 -0.7077
  840SOL    HW1 2701   1.726   0.935   3.517 -0.0794  1.2059 -1.6307
  840SOL    HW2 2702   1.806   1.050   3.432  2.0409  0.9416 -0.0799
  841SOL     OW 2703   0.229   1.875   2.582 -0.1144 -0.3076  0.1768
  841SOL    HW1 2704   0.312   1.915   2.622 -0.3782 -0.2039  0.6223
  841SOL    HW2 2705   0.185   1.817   2.649 -0.1675 -0.7174 -0.2114
  842SOL     OW 2706   1.085   3.734   2.066 -0.1309 -0.2751 -0.3644
  842SOL    HW1 2707   1.040   3.647   2.087  0.1160 -0.5494 -0.9226
  842SOL    HW2 2708   1.048   3.770   1.980  0.0749 -0.0466 -0.3584
  843SOL     OW 2709   3.710   3.911   1.146  0.5277  0.1795  0.2570
  843SOL    HW1 2710   3.746   3.939   1.057 -0.8105  2.0435  0.2421
  843SOL    HW2 2711   3.661   3.825   1.137  0.6170  0.2252 -0.7611
  844SOL     OW 2712   0.030   0.847   1.600  0.4266 -0.2111 -0.3947
  844SOL    HW1 2713   0.088   0.856   1.681  2.2962  0.0087 -1.6873
  844SOL    HW2 2714   0.049   0.760   1.556  1.0142  0.5623 -1.7325
  845SOL     OW 2715   4.049   2.521   0.019 -0.7208  0.3591 -0.1844
  845SOL    HW1 2716   4.084   2.440  -0.026 -0.5928  1.2933 -1.8403
  845SOL    HW2 2717   4.017   2.586  -0.050 -0.5488  1.8372  1.0677
  846SOL     OW 2718   3.628   1.925   3.520  0.5060  0.1844 -0.1777
  846SOL    HW1 2719   3.670   1.955   3.435  0.1244 -0.3323 -0.5534
  846SOL    HW2 2720   3.542   1.976   3.534  0.7389  0.5130  0.0754
  847SOL     OW 2721   0.078   1.561   0.618  0.6649 -0.6530  0.3660
  847SOL    HW1 2722   0.097   1.481   0.674  0.6555 -0.3062  0.8721
  847SOL    HW2 2723   0.146   1.567   0.545  2.3060  0.3277  1.8881
  848SOL     OW 2724   1.848   0.176   1.396 -0.7994  0.5415  0.0908
  848SOL    HW1 2725   1.753   0.169   1.425 -0.4521 -0.0085  1.1670
  848SOL    HW2 2726   1.855   0.240   1.319 -2.0334  0.5416 -0.0327
  849SOL     OW 2727   2.909   2.383   0.709  0.1544  0.1012 -1.1211
  849SOL    HW1 2728   2.846   2.443   0.760  2.1160  0.5158  0.9703
  849SOL    HW2 2729   2.862   2.298   0.688 -0.7436 -0.2271  1.7228
  850SOL     OW 2730   4.184   4.165   0.682  0.1200 -0.0875  0.0178
  850SOL    HW1 2731   4.220   4.157   0.589 -0.1354 -2.1177  0.0474
  850SOL    HW2 2732   4.099   4.218   0.680  0.1860  0.0070 -0.8836
  851SOL     OW 2733   0.478   3.173   3.482  0.5193 -0.3033  0.1212
  851SOL    HW1 2734   0.526   3.098   3.528 -2.0960 -2.0050  0.2749
  851SOL    HW2 2735   0.526   3.196   3.398  1.4964 -2.0434  0.1634
  852SOL     OW 2736   3.028   3.822   1.062  0.2958  0.3672  0.2098
  852SOL    HW1 2737   2.991   3.764   0.989 -1.1247  0.6446  0.6789
  852SOL    HW2 2738   3.059   3.908   1.022 -1.7195  1.0730  0.0555
  853SOL     OW 2739   4.127   2.890   1.755  0.0031  0.1527  0.4072
  853SOL    HW1 2740   4.085   2.976   1.727  0.6713  1.2135  2.4804
  853SOL    HW2 2741   4.201   2.867   1.691 -1.0714  0.3656 -0.9473
  854SOL     OW 2742   1.165   3.469   1.222 -0.7049  0.2658  0.0982
  854SOL    HW1 2743   1.227   3.531   1.174 -0.4098  0.6168  0.9109
  854SOL    HW2 2744   1.071   3.505   1.216 -0.6151  0.5008  0.0824
  855SOL     OW 2745   2.780   2.335   3.051  0.0463  0.1261  0.2099
  855SOL    HW1 2746   2.755   2.367   3.143  0.4830  1.1784 -0.0187
  855SOL    HW2 2747   2.844   2.400   3.011 -2.1364  1.1230 -1.8867
  856SOL     OW 2748   3.351   2.551   3.283  0.3728 -0.0615  0.2380
  856SOL    HW1 2749   3.376   2.557   3.380 -1.3874 -1.3579  0.8388
  856SOL    HW2 2750   3.251   2.556   3.275  0.4991  0.2985 -1.5514
  857SOL     OW 2751   0.956   2.422   0.687  0.3223  0.1174  0.6059
  857SOL    HW1 2752   0.908   2.345   0.729 -0.8997 -0.2414 -1.3031
  857SOL    HW2 2753   1.054   2.404   0.686  0.0427 -1.5737 -0.0672
  858SOL     OW 2754   1.694   1.424   2.771  0.1054  0.8988  0.0738
  858SOL    HW1 2755   1.645   1.493   2.824 -1.2491 -0.6457  0.9303
  858SOL    HW2 2756   1.629   1.377   2.711  0.6103 -0.7678  0.7696
  859SOL     OW 2757   1.546   1.904   4.156  0.4910  0.1930  0.0407
  859SOL    HW1 2758   1.620   1.836   4.157  0.5872  0.2592  2.4998
  859SOL    HW2 2759   1.466   1.865   4.202 -0.0954  1.0988 -0.1998
  860SOL     OW 2760   3.823   1.891   2.149 -0.3014  0.0205  0.2815
  860SOL    HW1 2761   3.811   1.796   2.119  1.8899 -0.0432 -0.5848
  860SOL    HW2 2762   3.797   1.953   2.075  2.8128 -0.0842 -1.0380
  861SOL     OW 2763   3.854   2.626   0.619  0.5326  0.0235  0.1261
  861SOL    HW1 2764   3.777   2.632   0.556 -0.3631 -0.3920  1.1521
  861SOL    HW2 2765   3.829   2.568   0.696  1.5375  0.6610  0.9641
  862SOL     OW 2766   2.014   0.118   0.841 -1.0301  0.2181 -0.5959
  862SOL    HW1 2767   2.049   0.026   0.862 -1.5132 -0.2312 -1.6629
  862SOL    HW2 2768   2.020   0.133   0.742  1.6997  2.4412 -0.2159
  863SOL     OW 2769   4.035   3.449   2.615 -1.1546  0.1949 -0.0040
  863SOL    HW1 2770   4.050   3.543   2.586 -0.9267  0.9044  2.2218
  863SOL    HW2 2771   3.949   3.443   2.666 -2.0890 -1.2073 -1.6142
  864SOL     OW 2772   1.329   3.194   3.102 -0.1440 -0.3541  0.5965
  864SOL    HW1 2773   1.345   3.277   3.048 -1.3411 -0.8997 -0.6581
  864SOL    HW2 2774   1.252   3.210   3.164 -1.6707 -1.0991 -1.0371
  865SOL     OW 2775   1.279   3.470   0.083  0.3641  0.0521  0.2723
  865SOL    HW1 2776   1.209   3.398   0.086 -1.1709  1.5025  0.8453
  865SOL    HW2 2777   1.300   3.499   0.177  1.1124  0.2259  0.0552
  866SOL     OW 2778   3.123   2.670   1.434  0.8497  0.4279 -0.2847
  866SOL    HW1 2779   3.100   2.700   1.526  2.2122 -1.1802  0.6361
  866SOL    HW2 2780   3.046   2.688   1.373 -1.6715 -1.8368  1.9557
  867SOL     OW 2781   3.091   1.738   3.148 -0.1868  0.5841  0.1628
  867SOL    HW1 2782   3.164   1.698   3.093  0.9240  0.6646  1.5108
  867SOL    HW2 2783   3.038   1.801   3.092  0.8874  0.6679 -0.7983
  868SOL     OW 2784   1.164   0.554   0.977  0.5118 -0.1720 -0.2167
  868SOL    HW1 2785   1.242   0.604   1.014  0.7868  0.7651 -1.9436
  868SOL    HW2 2786   1.122   0.499   1.049  2.5660 -0.4475  0.8322
  869SOL     OW 2787   2.799   1.558   3.257  0.0614  0.5372 -0.4442
  869SOL    HW1 2788   2.891   1.546   3.221  0.7167  0.1939  1.2602
  869SOL    HW2 2789   2.734   1.559   3.181  1.3656 -0.0897 -1.6125
  870SOL     OW 2790   3.354   2.483   4.012 -0.0105 -0.5069 -0.5135
  870SOL    HW1 2791   3.392   2.573   3.993 -0.0884 -0.3503  0.0598
  870SOL    HW2 2792   3.396   2.446   4.095 -1.5393 -0.0428  0.5350
  871SOL     OW 2793   4.171   2.437   3.716  0.0771  0.5131 -0.4735
  871SOL    HW1 2794   4.198   2.376   3.791 -1.9049 -1.5833 -1.3824
  871SOL    HW2 2795   4.234   2.425   3.640  0.2729  0.3368 -0.2864
  872SOL     OW 2796   4.246   3.676   2.437  0.1542  0.3529  0.4303
  872SOL    HW1 2797   4.216   3.738   2.363 -0.8731  1.0650  1.3987
  872SOL    HW2 2798   4.195   3.699   2.520  0.9743 -0.7287  1.2463
  873SOL     OW 2799   0.248   3.758   2.655  0.1426 -0.0008 -0.0254
  873SOL    HW1 2800   0.308   3.836   2.634  0.9273 -0.6789 -0.3679
  873SOL    HW2 2801   0.153   3.788   2.653  0.3871  0.7453 -1.0675
  874SOL     OW 2802   3.929   2.344   3.591  0.2070  0.0693 -0.0328
  874SOL    HW1 2803   4.007   2.394   3.630 -1.8638  1.8843  2.0499
  874SOL    HW2 2804   3.918   2.258   3.641  2.6167 -1.7656 -2.3743
  875SOL     OW 2805   3.988   3.187   2.441  0.0651  0.2303  0.0071
  875SOL    HW1 2806   3.998   3.263   2.505  1.2976  0.0987  0.0068
  875SOL    HW2 2807   4.077   3.170   2.397 -0.0953 -1.4153  0.2461
  876SOL     OW 2808   3.489   2.175   0.822  0.0843  0.2004  0.1885
  876SOL    HW1 2809   3.480   2.274   0.838  2.4759  0.3095  1.3458
  876SOL    HW2 2810   3.575   2.158   0.774  0.1631 -1.3739  0.8380
  877SOL     OW 2811   1.122   3.690   3.865 -0.0485  0.0061 -0.3956
  877SOL    HW1 2812   1.074   3.681   3.952  1.0020  0.1584  0.2125
  877SOL    HW2 2813   1.096   3.776   3.822 -0.2457  0.1310 -0.0297
  878SOL     OW 2814   2.523   2.693   1.567 -0.3345  0.6578 -0.0638
  878SOL    HW1 2815   2.614   2.728   1.545 -0.3504  0.3396 -0.6625
  878SOL    HW2 2816   2.466   2.768   1.600 -0.2022  1.0886 -0.7935
  879SOL     OW 2817   1.307   1.336   1.453 -0.0525  0.3040  0.2051
  879SOL    HW1 2818   1.404   1.334   1.431 -0.3243 -1.1521 -1.0658
  879SOL    HW2 2819   1.292   1.297   1.544  0.6043  1.3210  0.7678
  880SOL     OW 2820   0.711   0.821   0.910  0.2842 -0.2474 -0.0994
  880SOL    HW1 2821   0.793   0.770   0.936 -0.0810  0.0570  1.8287
  880SOL    HW2 2822   0.683   0.879   0.987 -1.1880  0.3787 -1.0640
  881SOL     OW 2823   4.131   1.278   1.829 -0.0017  0.4541  0.2715
  881SOL    HW1 2824   4.155   1.196   1.777 -0.7183 -0.2557  1.0240
  881SOL    HW2 2825   4.164   1.359   1.780 -0.5907 -0.1884 -1.2476
  882SOL     OW 2826   3.823   1.546   2.638  0.0631  0.5066 -0.2680
  882SOL    HW1 2827   3.843   1.515   2.731 -0.2085  0.0810 -0.3500
  882SOL    HW2 2828   3.831   1.646   2.634  1.3411  0.4355 -0.0911
  883SOL     OW 2829   3.277   2.005   1.805  0.5629  0.1320 -0.3038
  883SOL    HW1 2830   3.301   1.915   1.770  0.8653 -1.6279  3.8143
  883SOL    HW2 2831   3.178   2.010   1.817  0.6041  0.0486  0.0992
  884SOL     OW 2832   1.848   2.135   0.930 -0.3673 -0.1369  0.1293
  884SOL    HW1 2833   1.809   2.218   0.970  3.1114  1.2739  0.9339
  884SOL    HW2 2834   1.833   2.136   0.831 -1.1155  1.0248  0.2384
  885SOL     OW 2835   0.032   2.853   0.015  0.9687  0.1051  0.3548
  885SOL    HW1 2836  -0.025   2.889   0.089 -0.7940  0.1222 -0.9494
  885SOL    HW2 2837   0.123   2.894   0.021  0.0781  2.1285  0.9989
  886SOL     OW 2838   3.260   2.452   1.405 -0.1046  0.3380 -0.2932
  886SOL    HW1 2839   3.328   2.433   1.333  1.3365  1.6221  0.6619
  886SOL    HW2 2840   3.230   2.547   1.396 -2.5981 -0.4839 -1.3127
  887SOL     OW 2841   1.003   3.198   4.057  0.2440 -0.2065 -0.2945
  887SOL    HW1 2842   0.906   3.216   4.037  0.0135 -2.1836 -1.2490
  887SOL    HW2 2843   1.059   3.233   3.981  0.3615  1.4434  0.5226
  888SOL     OW 2844   3.414   3.606   0.661 -0.0256  0.0390 -0.6151
  888SOL    HW1 2845   3.396   3.618   0.759  0.4606 -0.1792 -0.4941
  888SOL    HW2 2846   3.511   3.584   0.649 -0.1578 -0.2646 -1.1202
  889SOL     OW 2847   3.106   3.274   2.213  0.0336 -0.2820  0.3332
  889SOL    HW1 2848   3.101   3.329   2.297  0.6547 -0.1012  0.2604
  889SOL    HW2 2849   3.188   3.217   2.217  0.3285  0.0812 -0.3607
  890SOL     OW 2850   1.562   0.900   3.557 -0.1973  0.0837 -0.5932
  890SOL    HW1 2851   1.508   0.818   3.579  1.1489 -0.2362  1.8427
  890SOL    HW2 2852   1.530   0.976   3.614  0.3882  0.5035 -0.8193
  891SOL     OW 2853   2.832   0.159   1.227 -0.8467 -0.3680  1.0050
  891SOL    HW1 2854   2.808   0.095   1.154 -0.6408  0.7804 -0.1036
  891SOL    HW2 2855   2.811   0.253   1.197  0.7923  0.2767  1.7745
  892SOL     OW 2856   1.146   1.159   1.321 -0.3603  0.3067  0.0499
  892SOL    HW1 2857   1.184   1.241   1.363  1.7973 -0.3606 -0.5148
  892SOL    HW2 2858   1.144   1.170   1.222 -0.8094 -0.0255  0.0171
  893SOL     OW 2859   3.730   2.449   1.995  0.1951  0.4938  0.5417
  893SOL    HW1 2860   3.660   2.403   2.051 -1.0032 -0.2397 -1.4589
  893SOL    HW2 2861   3.799   2.382   1.967  0.6693  0.8137  0.9183
  894SOL     OW 2862   1.116   1.732   0.466  0.9061  0.0958 -0.1985
  894SOL    HW1 2863   1.210   1.763   0.482  1.0116  0.0842 -0.7645
  894SOL    HW2 2864   1.091   1.750   0.371  0.4081 -0.0959 -0.1084
  895SOL     OW 2865   4.007   2.022   2.694  0.1659 -0.6402  0.0107
  895SOL    HW1 2866   3.919   2.069   2.689 -1.0070 -2.3045  2.7181
  895SOL    HW2 2867   4.069   2.062   2.627 -1.6466  2.6285  0.0614
  896SOL     OW 2868   3.522   2.762   2.594  0.4822  0.5824  0.0998
  896SOL    HW1 2869   3.547   2.692   2.527 -0.4471  0.6594 -0.3390
  896SOL    HW2 2870   3.560   2.737   2.683  1.7879  0.5161 -0.4575
  897SOL     OW 2871   1.099   1.419   1.844  0.1172 -0.4080  0.5730
  897SOL    HW1 2872   1.022   1.460   1.795 -1.1626 -2.1483  1.0189
  897SOL    HW2 2873   1.155   1.492   1.883 -0.3650  0.9415 -1.1234
  898SOL     OW 2874   3.520   1.816   1.492  0.8156  0.4233  0.6148
  898SOL    HW1 2875   3.479   1.899   1.453  0.7972 -0.0215 -0.3308
  898SOL    HW2 2876   3.464   1.784   1.568 -0.6711 -0.2146 -0.6958
  899SOL     OW 2877   1.844   0.919   1.352  0.4001  0.3960 -0.0087
  899SOL    HW1 2878   1.875   0.998   1.300 -1.6263  1.3837  0.1709
  899SOL    HW2 2879   1.834   0.945   1.448 -1.4904  0.3448 -0.1515
  900SOL     OW 2880   2.420   4.256   1.229  0.1545 -0.7344 -0.0315
  900SOL    HW1 2881   2.480   4.308   1.290  1.9467 -0.8143 -1.6342
  900SOL    HW2 2882   2.472   4.182   1.187  0.1946  1.4195 -4.3995
  901SOL     OW 2883   2.785   1.257   1.489  0.2953 -0.1284 -0.5447
  901SOL    HW1 2884   2.767   1.259   1.390  0.9001 -0.8949 -0.6869
  901SOL    HW2 2885   2.873   1.301   1.506 -0.2370  0.8470 -0.2218
  902SOL     OW 2886   1.448   1.940   1.654  0.4440  0.6366 -0.1929
  902SOL    HW1 2887   1.374   1.926   1.721 -0.6910 -0.4791 -1.5982
  902SOL    HW2 2888   1.408   1.945   1.563  2.0623  0.8673 -0.9112
  903SOL     OW 2889   1.227   4.242   3.155 -0.0947 -0.1795  0.2323
  903SOL    HW1 2890   1.255   4.293   3.236  0.0669 -2.0459  1.4189
  903SOL    HW2 2891   1.308   4.201   3.113 -0.4038 -0.9734  0.3969
  904SOL     OW 2892   2.402   1.365   3.638  0.1627  0.5818  0.5749
  904SOL    HW1 2893   2.420   1.268   3.650 -0.9457  0.3747  0.6451
  904SOL    HW2 2894   2.304   1.380   3.628  0.3863  1.6053 -0.3368
  905SOL     OW 2895   3.856   1.605   3.342 -0.0681 -0.1401  0.6693
  905SOL    HW1 2896   3.892   1.516   3.314 -0.6007 -0.2138  0.1986
  905SOL    HW2 2897   3.928   1.656   3.389  0.9767  0.0758 -1.0434
  906SOL     OW 2898   2.410   1.685   3.418  0.0123 -0.7248 -0.2335
  906SOL    HW1 2899   2.501   1.727   3.409 -0.1069 -0.2607  0.5611
  906SOL    HW2 2900   2.412   1.593   3.380  1.0170 -0.9852  0.3946
  907SOL     OW 2901   2.696   1.221   1.209 -0.2992 -0.0413  0.6173
  907SOL    HW1 2902   2.617   1.167   1.238 -0.4514 -0.4442 -0.4981
  907SOL    HW2 2903   2.669   1.279   1.131  0.0962  1.0044  1.2326
  908SOL     OW 2904   3.619   2.206   3.037 -0.0012 -0.4202 -0.3949
  908SOL    HW1 2905   3.603   2.298   3.074  0.0765  0.5695 -2.6859
  908SOL    HW2 2906   3.707   2.204   2.990  0.1038 -1.7484 -0.1838
  909SOL     OW 2907   1.221   0.743   3.480  0.0374 -0.7993  0.5459
  909SOL    HW1 2908   1.156   0.668   3.482 -1.5873  0.5419  0.2672
  909SOL    HW2 2909   1.273   0.744   3.565  0.0042 -2.1424  0.6001
  910SOL     OW 2910   2.960   3.510   1.361 -0.6366 -0.7907  0.1630
  910SOL    HW1 2911   2.863   3.486   1.351 -1.6375  2.2180  1.6043
  910SOL    HW2 2912   2.992   3.480   1.451 -0.9187  0.2231  0.6106
  911SOL     OW 2913   2.802   2.904   1.495 -0.5742 -0.1511  0.2083
  911SOL    HW1 2914   2.847   2.876   1.581  0.1615  2.2639  0.6843
  911SOL    HW2 2915   2.792   2.824   1.436 -1.3262 -1.9498  2.6185
  912SOL     OW 2916   2.316   0.413   3.432 -0.4684 -0.2476 -0.1996
  912SOL    HW1 2917   2.359   0.322   3.428  0.2980  0.0672  0.6823
  912SOL    HW2 2918   2.376   0.479   3.385  0.1033  0.2168  1.1438
  913SOL     OW 2919   0.969   1.096   3.695  0.2457  0.4734 -0.2101
  913SOL    HW1 2920   0.901   1.033   3.733  1.5616  1.0528  3.5814
  913SOL    HW2 2921   0.926   1.185   3.678 -0.5151  0.0381 -0.6061
  914SOL     OW 2922   0.723   2.121   1.840 -0.0724 -0.5365  0.0654
  914SOL    HW1 2923   0.623   2.119   1.830 -0.2192  2.3733  0.0159
  914SOL    HW2 2924   0.765   2.091   1.754 -0.8898 -1.1970 -0.1177
  915SOL     OW 2925   1.927   0.655   0.925  0.3131 -0.5348 -0.0005
  915SOL    HW1 2926   1.946   0.557   0.933 -1.3088 -0.9642 -0.9394
  915SOL    HW2 2927   1.977   0.691   0.846  2.4837 -0.1063  1.4605
  916SOL     OW 2928   2.746   0.737   1.618  0.3194  0.6112  0.2127
  916SOL    HW1 2929   2.770   0.833   1.603  0.8562  0.1600 -2.2383
  916SOL    HW2 2930   2.646   0.729   1.626  0.1076  1.1791 -1.5292
  917SOL     OW 2931   1.900   0.284   1.084 -0.0658  0.0126 -0.9601
  917SOL    HW1 2932   1.919   0.221   1.009 -0.3051  0.6976 -1.5980
  917SOL    HW2 2933   1.981   0.340   1.101 -0.5432  0.9754 -1.7939
  918SOL     OW 2934   3.544   0.278   1.020 -0.5681 -0.0970  0.2240
  918SOL    HW1 2935   3.541   0.179   1.014 -1.0844 -0.0463 -0.6072
  918SOL    HW2 2936   3.635   0.307   1.050 -0.6109 -0.8360  1.0905
  919SOL     OW 2937   2.808   3.993   2.224  0.1965 -0.2523 -0.2536
  919SOL    HW1 2938   2.717   3.952   2.225 -0.3788  0.9080 -1.1158
  919SOL    HW2 2939   2.825   4.037   2.312 -0.9112  1.1721 -0.7022
  920SOL     OW 2940   3.073   2.913   0.687  0.0174 -0.0245 -0.2616
  920SOL    HW1 2941   3.140   2.907   0.760  0.0003 -0.4074 -0.2710
  920SOL    HW2 2942   3.121   2.914   0.599  0.0038 -0.7118 -0.2841
  921SOL     OW 2943   2.901   3.540   0.161 -0.4613  0.0836  0.1587
  921SOL    HW1 2944   2.857   3.453   0.180 -0.5298  0.0528 -0.1321
  921SOL    HW2 2945   2.948   3.572   0.243  2.3307 -1.8033 -0.5612
  922SOL     OW 2946   0.644   2.802   1.943 -0.0030 -0.5982 -0.2404
  922SOL    HW1 2947   0.570   2.813   1.876 -0.4436  0.2946  0.3629
  922SOL    HW2 2948   0.694   2.718   1.924  0.6881  0.2458 -2.4700
  923SOL     OW 2949   2.830   2.007   3.303  0.1355  0.1215 -0.0429
  923SOL    HW1 2950   2.896   2.072   3.340 -0.1910  0.5863 -0.2676
  923SOL    HW2 2951   2.758   2.057   3.254  0.6522 -0.4702 -1.4663
  924SOL     OW 2952   0.294   1.228   2.841  0.3199 -0.7175  0.0341
  924SOL    HW1 2953   0.244   1.249   2.925  0.4818 -0.6329  0.1109
  924SOL    HW2 2954   0.281   1.302   2.775 -0.2131 -1.0211 -0.2025
  925SOL     OW 2955   3.124   1.600   1.377  0.0609 -0.1736 -0.6181
  925SOL    HW1 2956   3.130   1.700   1.375  1.2894 -0.2420 -1.4323
  925SOL    HW2 2957   3.072   1.568   1.298 -0.7747 -0.1789 -0.0873
  926SOL     OW 2958   4.005   1.658   3.881  0.4191 -0.4075 -0.3380
  926SOL    HW1 2959   3.956   1.736   3.919  0.6446  0.4223 -1.6676
  926SOL    HW2 2960   4.024   1.592   3.953  1.3714  1.3588  1.1173
  927SOL     OW 2961   0.238   1.484   2.766 -0.3303 -0.5828 -0.2762
  927SOL    HW1 2962   0.332   1.516   2.751 -0.7192 -0.7099 -3.7330
  927SOL    HW2 2963   0.176   1.561   2.755 -0.7382 -0.8784 -0.0339
  928SOL     OW 2964   1.453   3.195   0.378 -0.1213 -0.0038 -0.4395
  928SOL    HW1 2965   1.394   3.184   0.458 -0.1954  0.4798 -0.4187
  928SOL    HW2 2966   1.531   3.253   0.403 -0.2463  0.3104 -0.7634
  929SOL     OW 2967   3.912   2.242   2.019  0.2916 -0.0259 -0.2837
  929SOL    HW1 2968   3.881   2.169   1.958  1.8131 -1.6610  0.8232
  929SOL    HW2 2969   3.993   2.286   1.980  0.2450  0.0956 -0.2463
  930SOL     OW 2970   2.324   1.671   3.827  0.7716  0.1226  0.0769
  930SOL    HW1 2971   2.409   1.619   3.818  1.6482  1.6340 -0.8002
  930SOL    HW2 2972   2.316   1.734   3.751  0.5939  2.4277  1.8806
  931SOL     OW 2973   2.429   1.113   1.742 -0.4752  0.4701 -0.2068
  931SOL    HW1 2974   2.348   1.131   1.798 -0.8946 -0.0337 -0.6481
  931SOL    HW2 2975   2.447   1.193   1.684 -0.1143  0.9434  0.5460
  932SOL     OW 2976   1.909   3.735   1.472  0.6347  0.4442  0.0030
  932SOL    HW1 2977   2.002   3.700   1.476  0.2332 -0.5710  1.2702
  932SOL    HW2 2978   1.845   3.661   1.493 -0.5350  0.8903 -1.7363
  933SOL     OW 2979   2.253   2.893   0.696  0.6558 -0.0474 -0.1978
  933SOL    HW1 2980   2.230   2.862   0.788  2.7004 -2.1326 -0.3181
  933SOL    HW2 2981   2.201   2.839   0.630  0.6059  0.1557 -0.3267
  934SOL     OW 2982   2.724   1.111   2.152  0.1271  0.0881  0.1556
  934SOL    HW1 2983   2.718   1.153   2.243 -0.5553  1.4875 -0.5055
  934SOL    HW2 2984   2.706   1.180   2.083  2.2526 -0.5833 -1.1493
  935SOL     OW 2985   3.527   2.529   2.970  0.3217  0.5779  0.3660
  935SOL    HW1 2986   3.599   2.527   3.039 -0.1839  0.0559  0.8905
  935SOL    HW2 2987   3.445   2.486   3.006  0.3269 -0.5542 -0.8824
  936SOL     OW 2988   4.231   2.272   3.937  0.6441  0.1752  0.0483
  936SOL    HW1 2989   4.195   2.321   4.016  1.4087 -1.3391  1.3874
  936SOL    HW2 2990   4.187   2.182   3.931  1.1720 -0.0460 -0.7944
  937SOL     OW 2991   3.220   2.325   3.847  0.3182  0.2145 -0.0065
  937SOL    HW1 2992   3.267   2.392   3.906 -0.6240  1.1840 -0.3215
  937SOL    HW2 2993   3.166   2.263   3.904  1.0861 -0.2033  0.2809
  938SOL     OW 2994   1.256   2.619   3.810  0.3253 -0.3125 -0.4615
  938SOL    HW1 2995   1.294   2.532   3.777 -2.0929 -1.1989 -1.1472
  938SOL    HW2 2996   1.169   2.600   3.856  1.0705  1.4947  1.8415
  939SOL     OW 2997   2.176   2.276   3.642  0.2196  0.4053 -0.1863
  939SOL    HW1 2998   2.244   2.309   3.576 -0.7995  0.5604 -1.1854
  939SOL    HW2 2999   2.218   2.205   3.699  1.1276  0.2471 -1.0131
  940SOL     OW 3000   3.208   2.141   0.529 -0.4319 -0.2594 -0.1993
  940SOL    HW1 3001   3.130   2.174   0.475 -1.2543 -2.0912 -0.2050
  940SOL    HW2 3002   3.252   2.065   0.480 -0.1926 -0.8788  0.9431
  941SOL     OW 3003   1.204   3.809   1.561 -0.1500  0.5142  0.4659
  941SOL    HW1 3004   1.193   3.719   1.603  2.2557  0.3999  0.9744
  941SOL    HW2 3005   1.201   3.879   1.632 -1.4861  0.8430  0.1282
  942SOL     OW 3006   0.330   2.836   0.610  0.2450 -0.3981  0.1454
  942SOL    HW1 3007   0.377   2.850   0.697 -0.4585  2.6562  0.1242
  942SOL    HW2 3008   0.232   2.825   0.627  0.3219 -1.7731 -0.1667
  943SOL     OW 3009   1.226   2.319   0.687  0.0563  0.1054  0.1761
  943SOL    HW1 3010   1.160   2.257   0.645 -1.2850  1.3440  0.3800
  943SOL    HW2 3011   1.310   2.321   0.632 -0.5795 -0.4928 -0.8341
  944SOL     OW 3012   1.797   3.043   2.226  0.0662  0.5357  0.4721
  944SOL    HW1 3013   1.703   3.073   2.238 -0.5907 -1.4002  0.5204
  944SOL    HW2 3014   1.850   3.062   2.309 -0.3960  1.2221  0.6090
  945SOL     OW 3015   3.997   2.953   2.613  0.3771 -0.0136 -0.3965
  945SOL    HW1 3016   4.092   2.924   2.602  0.6657  0.4948  0.6032
  945SOL    HW2 3017   3.981   3.034   2.556  0.6191  0.0404 -0.3884
  946SOL     OW 3018   0.011   2.195   3.284 -0.2528 -0.0120 -0.1984
  946SOL    HW1 3019   0.103   2.209   3.246 -1.0435 -0.5268 -2.4907
  946SOL    HW2 3020   0.016   2.130   3.360  1.5509  1.7697  1.3420
  947SOL     OW 3021   1.664   2.731   2.357  0.1014 -0.0842  0.4158
  947SOL    HW1 3022   1.675   2.631   2.353 -0.7734 -0.2295  1.2393
  947SOL    HW2 3023   1.635   2.764   2.267  1.9044 -0.3529 -0.3025
  948SOL     OW 3024   3.676   0.994   3.109  0.3810 -0.2147 -0.2640
  948SOL    HW1 3025   3.692   0.903   3.144 -4.1465  0.0692  3.5152
  948SOL    HW2 3026   3.609   0.989   3.034 -0.9479 -0.0059  0.8774
  949SOL     OW 3027   0.756   1.485   3.128 -0.5590  0.2146  0.1826
  949SOL    HW1 3028   0.837   1.428   3.117 -1.1576 -0.4670 -0.8397
  949SOL    HW2 3029   0.694   1.442   3.192 -0.0581  0.8170  1.0908
  950SOL     OW 3030   1.013   1.804   3.633 -0.0004 -0.0661  0.4135
  950SOL    HW1 3031   0.932   1.839   3.587  0.8204  1.2208 -0.1389
  950SOL    HW2 3032   1.064   1.746   3.569 -0.8227 -1.4689  0.9909
  951SOL     OW 3033   2.193   4.043   2.416  0.1332  0.2518 -0.3814
  951SOL    HW1 3034   2.119   3.982   2.386  0.7251  0.1178 -1.6352
  951SOL    HW2 3035   2.247   4.071   2.336  2.2707 -0.7500  0.6170
  952SOL     OW 3036   2.125   2.821   1.460  0.8448 -0.0153  0.0463
  952SOL    HW1 3037   2.086   2.743   1.510  2.7807 -0.1707  1.4429
  952SOL    HW2 3038   2.136   2.797   1.364 -1.4911 -0.2895 -0.2107
  953SOL     OW 3039   0.184   2.324   2.926  0.1223  1.0099 -0.1401
  953SOL    HW1 3040   0.127   2.401   2.955  1.8949  1.6600  1.8186
  953SOL    HW2 3041   0.127   2.242   2.920 -1.2292  1.8428  0.7104
  954SOL     OW 3042   1.413   1.911   3.670 -0.2645 -0.4064 -0.4259
  954SOL    HW1 3043   1.326   1.945   3.707  0.0519 -2.0436  2.0855
  954SOL    HW2 3044   1.400   1.886   3.574 -1.7878  1.9038 -0.9153
  955SOL     OW 3045   0.885   2.193   0.798 -0.1922  0.2013  0.2942
  955SOL    HW1 3046   0.928   2.185   0.888 -1.4533 -0.1736  0.8965
  955SOL    HW2 3047   0.942   2.149   0.729  1.0392  0.9356  0.8156
  956SOL     OW 3048   2.593   3.861   2.353 -0.0595  0.0630 -0.1083
  956SOL    HW1 3049   2.565   3.797   2.425 -1.1854 -0.8828 -1.3263
  956SOL    HW2 3050   2.587   3.954   2.387  0.5376 -0.4016  1.3650
  957SOL     OW 3051   2.140   1.647   3.373 -0.8396 -0.1216  0.2019
  957SOL    HW1 3052   2.076   1.716   3.405  0.2481 -0.2111  2.8680
  957SOL    HW2 3053   2.234   1.679   3.388 -0.2998 -1.3514 -0.3803
  958SOL     OW 3054   3.935   1.701   3.001 -0.0404 -0.5294 -0.0343
  958SOL    HW1 3055   3.854   1.761   3.000  0.5917  0.3475 -0.7920
  958SOL    HW2 3056   3.906   1.607   2.988 -1.1494 -0.5434  2.0597
  959SOL     OW 3057   0.733   3.575   2.088 -0.1517  0.6247 -0.3633
  959SOL    HW1 3058   0.826   3.543   2.074 -0.0454 -0.6358  2.4966
  959SOL    HW2 3059   0.699   3.541   2.176 -3.5983  0.4376 -1.6096
  960SOL     OW 3060   1.928   2.438   1.279  0.0056  0.0836 -0.3152
  960SOL    HW1 3061   1.846   2.444   1.223 -1.3143  2.9451  1.6621
  960SOL    HW2 3062   1.904   2.398   1.368  1.1444 -0.5448 -0.2723
  961SOL     OW 3063   4.091   2.055   4.005 -0.5517  0.6295  0.4070
  961SOL    HW1 3064   4.059   2.065   4.099  2.5175  0.4801  1.5752
  961SOL    HW2 3065   4.139   1.968   3.996 -1.4085  0.2985 -1.5593
  962SOL     OW 3066   3.295   1.791   1.641  0.3126  0.2948 -0.8084
  962SOL    HW1 3067   3.256   1.814   1.552  0.5801 -0.6202 -1.1784
  962SOL    HW2 3068   3.294   1.691   1.653  2.0882  0.2484 -0.6519
  963SOL     OW 3069   1.905   0.461   1.810 -0.1645 -0.4568 -0.0253
  963SOL    HW1 3070   1.910   0.421   1.901 -0.3499 -1.8076 -0.5880
  963SOL    HW2 3071   1.896   0.561   1.818  0.6718 -0.4778  1.3985
  964SOL     OW 3072   0.918   1.808   2.527  0.5621 -0.2593 -0.7080
  964SOL    HW1 3073   0.901   1.881   2.461 -1.3992 -0.3167 -0.3266
  964SOL    HW2 3074   0.867   1.726   2.500 -0.0328 -0.3781  0.6819
  965SOL     OW 3075   2.363   2.638   0.958  0.6061 -0.0807 -0.6421
  965SOL    HW1 3076   2.370   2.571   1.031 -0.4949  0.6151  0.1229
  965SOL    HW2 3077   2.429   2.615   0.886  1.1864 -1.1903  0.2175
  966SOL     OW 3078   0.103   3.528   0.856 -0.0814 -0.0923  0.2912
  966SOL    HW1 3079   0.069   3.619   0.880  0.1426 -0.1049  0.6461
  966SOL    HW2 3080   0.141   3.484   0.937 -0.6101 -0.6864  0.2263
  967SOL     OW 3081   3.655   3.176   3.477 -0.5437 -0.3589 -0.3728
  967SOL    HW1 3082   3.666   3.142   3.570  0.0425  0.7538 -0.0127
  967SOL    HW2 3083   3.567   3.223   3.469 -0.5207 -0.3076 -0.3255
  968SOL     OW 3084   1.672   1.306   3.642 -0.2607  0.0627  0.0163
  968SOL    HW1 3085   1.760   1.288   3.599  0.2009  0.7410  0.6445
  968SOL    HW2 3086   1.639   1.396   3.614 -0.6787 -0.1199 -0.0895
  969SOL     OW 3087   1.177   1.317   2.332 -0.3364 -0.0031  0.0675
  969SOL    HW1 3088   1.187   1.367   2.417  0.3818  2.1429 -1.2074
  969SOL    HW2 3089   1.080   1.309   2.310 -0.5751 -1.2075  1.3794
  970SOL     OW 3090   1.059   2.094   0.597  0.4707  0.0551  0.1181
  970SOL    HW1 3091   1.043   2.013   0.654  0.1575 -0.1029 -0.1894
  970SOL    HW2 3092   1.092   2.065   0.507 -1.6858  0.1138 -0.7509
  971SOL     OW 3093   3.302   2.271   1.815 -0.5441 -0.7064  0.4607
  971SOL    HW1 3094   3.301   2.171   1.808  0.5257 -0.6418 -1.2258
  971SOL    HW2 3095   3.211   2.307   1.795 -0.6572 -1.2948 -0.1003
  972SOL     OW 3096   0.803   1.427   0.655 -0.3510 -0.1547 -0.5203
  972SOL    HW1 3097   0.727   1.434   0.719 -0.3010 -0.1677 -0.4594
  972SOL    HW2 3098   0.869   1.500   0.673  0.5095 -1.1592  0.5596
  973SOL     OW 3099   0.989   2.034   1.218 -0.6512  0.2667 -0.1915
  973SOL    HW1 3100   1.005   2.112   1.158 -1.0572  0.7338  0.2997
  973SOL    HW2 3101   1.060   1.965   1.202 -0.1296  0.8542 -0.4339
  974SOL     OW 3102   1.774   1.569   1.130 -0.1803 -0.4363 -0.5613
  974SOL    HW1 3103   1.700   1.505   1.108  1.2827 -2.4941  0.2458
  974SOL    HW2 3104   1.787   1.632   1.053 -0.6293 -2.1171 -2.0849
  975SOL     OW 3105   2.708   1.253   2.401  0.3992 -0.4386  0.0806
  975SOL    HW1 3106   2.695   1.225   2.496 -1.6209 -2.7729 -0.7859
  975SOL    HW2 3107   2.718   1.353   2.397  1.4966 -0.3597  2.7625
  976SOL     OW 3108   2.873   2.662   3.066 -0.2263 -0.1246 -0.1612
  976SOL    HW1 3109   2.961   2.655   3.114 -0.9920  1.0747  1.5190
  976SOL    HW2 3110   2.884   2.629   2.972  2.3540  1.2102 -0.4224
  977SOL     OW 3111   2.832   3.826   1.564 -0.3469  0.0822  0.4907
  977SOL    HW1 3112   2.881   3.894   1.618 -0.1771 -1.6222  2.6484
  977SOL    HW2 3113   2.883   3.808   1.479  0.2764  1.6408  0.4977
  978SOL     OW 3114   3.418   2.481   0.852  0.0885  0.1263 -0.2892
  978SOL    HW1 3115   3.341   2.474   0.789 -1.0085 -0.5535  1.0715
  978SOL    HW2 3116   3.403   2.557   0.915  2.6575  2.8554 -2.6954
  979SOL     OW 3117   2.022   1.468   2.954  0.4115 -0.4545 -0.2536
  979SOL    HW1 3118   1.938   1.486   2.903  0.3019  0.0804  0.1063
  979SOL    HW2 3119   2.063   1.555   2.981  1.1657 -0.7092 -0.5591
  980SOL     OW 3120   1.077   3.027   2.608  0.1077  0.0514 -0.1987
  980SOL    HW1 3121   1.137   3.107   2.613 -1.7713  1.6459 -1.6879
  980SOL    HW2 3122   1.112   2.965   2.538  1.0367  0.0127  0.2759
  981SOL     OW 3123   3.999   2.542   2.323 -0.0501  0.3177  0.3632
  981SOL    HW1 3124   3.949   2.614   2.274  1.9319  2.2150  0.9602
  981SOL    HW2 3125   3.952   2.521   2.409 -1.6230 -0.4746 -0.6395
  982SOL     OW 3126   2.945   3.780   1.315  0.3378 -0.0617  0.4727
  982SOL    HW1 3127   2.956   3.682   1.325  1.8209  0.2103  2.0553
  982SOL    HW2 3128   2.962   3.806   1.220 -1.7792 -1.4775 -0.3494
  983SOL     OW 3129   3.658   1.456   3.508 -0.1112 -0.7876 -0.2768
  983SOL    HW1 3130   3.704   1.481   3.423 -2.5427 -1.6620 -1.9664
  983SOL    HW2 3131   3.602   1.533   3.538  0.4164 -0.6303  0.3129
  984SOL     OW 3132   2.816   0.462   0.898  0.1732 -0.6053 -0.1219
  984SOL    HW1 3133   2.791   0.450   0.994 -1.3016 -2.6790 -0.6967
  984SOL    HW2 3134   2.838   0.372   0.858 -1.7104 -0.1796 -2.3309
  985SOL     OW 3135   3.976   2.912   1.441 -0.2802 -0.4527  0.1995
  985SOL    HW1 3136   4.038   2.974   1.392  0.1392 -1.7316 -0.9631
  985SOL    HW2 3137   3.967   2.942   1.536 -1.0785  2.0742 -0.6218
  986SOL     OW 3138   1.586   4.097   2.256  0.0685  0.1186  0.3555
  986SOL    HW1 3139   1.678   4.080   2.220  0.3182  0.7439  0.6905
  986SOL    HW2 3140   1.592   4.155   2.337 -0.7279  1.8557 -0.7540
  987SOL     OW 3141   3.182   3.130   1.849 -0.0448 -0.2331 -0.3727
  987SOL    HW1 3142   3.200   3.229   1.845  2.0541 -0.5845 -1.0852
  987SOL    HW2 3143   3.198   3.091   1.758  0.2733 -1.3873  0.1647
  988SOL     OW 3144   3.724   3.352   3.170  0.1233  0.4136  0.1309
  988SOL    HW1 3145   3.734   3.254   3.189  0.4105  0.6547  1.2888
  988SOL    HW2 3146   3.655   3.364   3.099  1.6507 -0.7560 -1.6725
  989SOL     OW 3147   0.710   1.401   0.407 -0.0452 -0.1154 -0.4017
  989SOL    HW1 3148   0.739   1.414   0.501 -4.1770  0.1817  1.0374
  989SOL    HW2 3149   0.706   1.489   0.360 -0.8559  0.1634  0.1709
  990SOL     OW 3150   4.122   2.351   2.711  0.2499 -0.1559 -0.0583
  990SOL    HW1 3151   4.134   2.296   2.628  1.3420 -1.6370  1.0229
  990SOL    HW2 3152   4.208   2.398   2.732 -0.4162  1.2857 -0.4760
  991SOL     OW 3153   2.323   2.883   1.604 -0.2898 -0.2665 -0.8698
  991SOL    HW1 3154   2.250   2.867   1.538 -1.4498 -0.1048  0.3430
  991SOL    HW2 3155   2.326   2.980   1.628 -0.4645 -0.4621 -0.0280
  992SOL     OW 3156   0.498   2.996   3.968  0.4338  0.4854 -0.8611
  992SOL    HW1 3157   0.402   2.972   3.984  0.1107  1.8537 -0.6266
  992SOL    HW2 3158   0.544   3.008   4.056  0.1870  2.1675 -0.9326
  993SOL     OW 3159   3.773   0.718   2.266 -0.1565  0.3515  0.0695
  993SOL    HW1 3160   3.821   0.747   2.349 -0.6145  0.8362  0.1723
  993SOL    HW2 3161   3.736   0.798   2.219 -1.0773 -0.0146  0.1304
  994SOL     OW 3162   2.577   0.536   1.981  0.0425 -0.3974 -0.1353
  994SOL    HW1 3163   2.632   0.618   1.963  2.8098 -2.1366 -0.1737
  994SOL    HW2 3164   2.545   0.538   2.076 -0.8803  1.1893 -0.4433
  995SOL     OW 3165   0.233   3.003   2.725 -0.7186  0.1202  0.7330
  995SOL    HW1 3166   0.275   2.964   2.807 -0.8932 -2.7183 -0.4190
  995SOL    HW2 3167   0.280   2.969   2.644 -3.5779 -1.2170 -0.5151
  996SOL     OW 3168   0.684   2.300   2.043 -0.1452 -0.0195  0.6194
  996SOL    HW1 3169   0.663   2.226   1.980 -1.1868  0.1729  0.7258
  996SOL    HW2 3170   0.644   2.280   2.132 -0.8761  0.8933  0.5137
  997SOL     OW 3171   1.291   3.001   2.896  0.5331  0.4082  0.5418
  997SOL    HW1 3172   1.311   3.046   2.983  0.0399  1.4190  0.1568
  997SOL    HW2 3173   1.209   2.946   2.905  1.0697 -0.3243  0.9889
  998SOL     OW 3174   0.156   1.472   0.200 -0.3555 -0.3006 -0.8790
  998SOL    HW1 3175   0.161   1.544   0.270 -1.2041 -0.5270 -0.5722
  998SOL    HW2 3176   0.237   1.477   0.143 -0.9965  1.8050 -1.7185
  999SOL     OW 3177   2.735   2.212   2.793 -0.2196 -0.0834  0.7068
  999SOL    HW1 3178   2.703   2.302   2.765  1.3532  0.0908 -0.6756
  999SOL    HW2 3179   2.806   2.223   2.863 -1.7026 -0.3944  2.3425
 1000SOL     OW 3180   2.279   3.937   1.701  0.3665  0.0531 -0.2674
 1000SOL    HW1 3181   2.207   3.942   1.632  0.6701 -1.1670 -0.6826
 1000SOL    HW2 3182   2.315   4.029   1.716 -0.5439  0.5221 -0.8191
 1001SOL     OW 3183   1.480   2.043   0.387 -1.2894 -0.0661 -0.2950
 1001SOL    HW1 3184   1.453   1.947   0.374 -0.0344 -0.2369 -2.0758
 1001SOL    HW2 3185   1.572   2.056   0.349 -0.7427  1.4935  1.4294
 1002SOL     OW 3186   0.743   1.683   2.155  0.2265  0.5568  0.0672
 1002SOL    HW1 3187   0.783   1.664   2.065 -0.5195  0.6237 -0.2919
 1002SOL    HW2 3188   0.668   1.749   2.144 -0.3949 -0.0475  0.6291
 1003SOL     OW 3189   2.685   0.938   2.536  0.2175  0.1072  0.4240
 1003SOL    HW1 3190   2.605   0.877   2.541 -0.2174  0.6254 -0.0762
 1003SOL    HW2 3191   2.702   0.977   2.626 -0.1735  0.0856  0.5098
 1004SOL     OW 3192   3.950   0.441   1.835 -0.1550 -0.8667  0.4045
 1004SOL    HW1 3193   3.864   0.452   1.784 -0.4512 -0.9719  0.8732
 1004SOL    HW2 3194   3.939   0.481   1.926  0.6580  0.1277  0.0921
 1005SOL     OW 3195   3.526   3.973   1.539  0.3849  0.1839 -0.3393
 1005SOL    HW1 3196   3.583   3.940   1.614 -1.5911  0.7669  1.5173
 1005SOL    HW2 3197   3.531   4.073   1.535 -1.5953  0.3688  0.8408
 1006SOL     OW 3198   3.577   2.922   1.227 -0.0721  0.6600 -0.2322
 1006SOL    HW1 3199   3.546   2.913   1.132 -0.5476 -0.1433 -0.0200
 1006SOL    HW2 3200   3.532   2.851   1.282  1.6671 -0.1258  0.2317
 1007SOL     OW 3201   3.901   0.523   2.094 -0.4200 -0.8248  0.4866
 1007SOL    HW1 3202   3.853   0.609   2.108 -1.1336 -1.2484  0.6868
 1007SOL    HW2 3203   3.876   0.459   2.167 -0.8712 -1.6184 -0.3488
 1008SOL     OW 3204   1.279   2.116   2.956 -0.3582  0.1105 -0.3484
 1008SOL    HW1 3205   1.263   2.050   2.883 -1.8463  0.8792 -0.7713
 1008SOL    HW2 3206   1.294   2.207   2.915 -2.2656  0.7574  0.2561
 1009SOL     OW 3207   3.531   0.994   2.876  0.0104  0.4809 -0.3400
 1009SOL    HW1 3208   3.595   0.971   2.803 -0.2608  0.6339 -0.6238
 1009SOL    HW2 3209   3.514   1.092   2.875 -0.9499  0.3231 -0.8589
 1010SOL     OW 3210   1.169   1.958   3.767 -0.3151  0.4867 -0.1260
 1010SOL    HW1 3211   1.099   1.904   3.720 -0.0206  0.4157 -0.4862
 1010SOL    HW2 3212   1.141   2.054   3.767  1.1861  1.0529 -3.3875
 1011SOL     OW 3213   3.306   3.851   0.503  0.3499  0.8801 -0.5099
 1011SOL    HW1 3214   3.211   3.883   0.505  0.4171  1.0552 -0.2508
 1011SOL    HW2 3215   3.313   3.767   0.557  0.2716  0.6702 -0.8166
 1012SOL     OW 3216   1.620   1.200   3.153 -0.4060 -0.5444  0.1920
 1012SOL    HW1 3217   1.554   1.270   3.126 -0.4454 -0.6828 -0.0735
 1012SOL    HW2 3218   1.581   1.145   3.227 -0.7557 -0.8845 -0.2395
 1013SOL     OW 3219   2.458   3.313   0.573 -0.0793 -0.5627 -0.1707
 1013SOL    HW1 3220   2.478   3.405   0.540  1.5027 -1.0181 -0.5691
 1013SOL    HW2 3221   2.528   3.286   0.640 -1.2962 -0.9684  0.9652
 1014SOL     OW 3222   2.349   0.055   0.829 -0.1288 -0.4157  0.3505
 1014SOL    HW1 3223   2.334  -0.043   0.841  0.1732 -0.2908  1.9127
 1014SOL    HW2 3224   2.339   0.078   0.732  1.0101 -2.2052 -0.2495
 1015SOL     OW 3225   0.081   3.757   1.833  0.1179  0.3639  0.5104
 1015SOL    HW1 3226   0.079   3.665   1.795 -0.9557  0.4546  0.3259
 1015SOL    HW2 3227   0.176   3.789   1.836  0.3933 -0.3323 -0.4228
 1016SOL     OW 3228   0.279   2.257   3.206  0.0459  0.5262  0.1118
 1016SOL    HW1 3229   0.334   2.337   3.228  0.6888  0.4110 -1.0247
 1016SOL    HW2 3230   0.233   2.271   3.119 -0.7658  0.1229  0.4680
 1017SOL     OW 3231   0.286   2.730   1.084 -0.3563 -0.4263  0.1865
 1017SOL    HW1 3232   0.249   2.813   1.125  1.6650  0.2510  0.7173
 1017SOL    HW2 3233   0.310   2.748   0.989  0.3601 -0.2964  0.3857
 1018SOL     OW 3234   2.217   1.231   1.871 -0.0345 -0.1170  0.1305
 1018SOL    HW1 3235   2.240   1.233   1.968  0.5197 -0.2458  0.0042
 1018SOL    HW2 3236   2.129   1.185   1.859  1.0909 -2.4619  0.3608
 1019SOL     OW 3237   1.846   4.092   2.162 -0.2865  0.5682  0.5063
 1019SOL    HW1 3238   1.913   4.166   2.169 -0.4400  0.7367  0.2067
 1019SOL    HW2 3239   1.864   4.039   2.079 -0.3173  0.4033  0.6032
 1020SOL     OW 3240   1.072   2.902   1.313 -0.2291  0.3324  0.6786
 1020SOL    HW1 3241   1.097   2.993   1.279  0.9720 -0.4382 -0.6199
 1020SOL    HW2 3242   0.988   2.909   1.366 -0.7432  2.0487 -0.2767
 1021SOL     OW 3243   3.155   2.822   3.456 -0.9990 -0.2748 -0.1032
 1021SOL    HW1 3244   3.254   2.816   3.466 -0.4154  1.9202 -3.0075
 1021SOL    HW2 3245   3.129   2.918   3.443 -3.1497 -1.0062 -1.8442
 1022SOL     OW 3246   2.992   2.729   1.664  0.3262  0.0734  0.0456
 1022SOL    HW1 3247   3.016   2.771   1.751 -0.9674  0.8823  0.0466
 1022SOL    HW2 3248   2.939   2.646   1.681  0.8663 -0.2794  0.0270
 1023SOL     OW 3249   3.929   3.842   1.313 -0.4588 -0.4842 -0.2577
 1023SOL    HW1 3250   3.853   3.868   1.254 -0.8109 -1.5065 -0.2766
 1023SOL    HW2 3251   3.894   3.791   1.392  0.0974  0.0456  0.3381
 1024SOL     OW 3252   0.216   2.864   3.503 -0.0116 -0.4283 -0.7040
 1024SOL    HW1 3253   0.137   2.804   3.495  0.1845 -0.8961  0.6183
 1024SOL    HW2 3254   0.197   2.934   3.572 -0.4620  1.4339 -2.6217
 1025SOL     OW 3255   3.950   0.007   1.352 -0.3802 -0.3874 -0.0102
 1025SOL    HW1 3256   3.948  -0.064   1.422  0.5814 -0.2136  0.2116
 1025SOL    HW2 3257   4.007  -0.023   1.276  1.9480  1.0001  1.0784
 1026SOL     OW 3258   2.112   3.842   1.210  0.6601 -0.0404 -0.3163
 1026SOL    HW1 3259   2.102   3.942   1.217  1.7680  0.2548 -2.2531
 1026SOL    HW2 3260   2.209   3.819   1.213  0.4491 -1.0014 -0.5700
 1027SOL     OW 3261   0.785   0.597   3.834 -0.3435  0.3520  0.1401
 1027SOL    HW1 3262   0.750   0.519   3.782  1.6307 -0.3370 -0.2541
 1027SOL    HW2 3263   0.741   0.599   3.924  2.2615 -3.6980  1.7934
 1028SOL     OW 3264   2.904   0.758   2.110  0.0168 -0.3975  0.0020
 1028SOL    HW1 3265   2.865   0.817   2.181 -0.3361 -2.6913  1.8439
 1028SOL    HW2 3266   2.839   0.750   2.035 -0.2686  0.8722  0.0861
 1029SOL     OW 3267   3.388   2.323   3.641  0.4213 -0.4977 -0.4321
 1029SOL    HW1 3268   3.346   2.326   3.731  1.8044 -0.9139  0.2497
 1029SOL    HW2 3269   3.369   2.234   3.599  1.6291 -1.1579  0.3885
 1030SOL     OW 3270   1.907   1.884   4.079  0.3779 -0.1687  0.4528
 1030SOL    HW1 3271   1.998   1.913   4.047  0.7143 -2.2397 -0.6545
 1030SOL    HW2 3272   1.837   1.927   4.022  0.8532 -1.3922 -1.1204
 1031SOL     OW 3273   0.820   3.127   3.494 -0.1442  0.3329 -0.5976
 1031SOL    HW1 3274   0.767   3.172   3.422  0.4180 -0.8867 -1.8110
 1031SOL    HW2 3275   0.917   3.136   3.473  0.1690  2.0339  1.3010
 1032SOL     OW 3276   3.864   3.585   2.764  0.2761  0.5667  0.1421
 1032SOL    HW1 3277   3.774   3.624   2.747  0.4831  0.2175 -2.1404
 1032SOL    HW2 3278   3.866   3.545   2.855 -2.2409 -0.3426 -0.1139
 1033SOL     OW 3279   2.058   0.009   2.074 -0.2949  0.0028  0.5472
 1033SOL    HW1 3280   2.143  -0.043   2.091 -0.5232 -0.3444  0.6458
 1033SOL    HW2 3281   2.078   0.086   2.014 -0.2166 -1.0444 -0.8100
 1034SOL     OW 3282   2.102   4.005   0.708 -0.3711  0.5898  0.1059
 1034SOL    HW1 3283   2.029   3.959   0.658  0.5449 -1.0018  0.1512
 1034SOL    HW2 3284   2.073   4.021   0.802  0.0743 -2.1966  0.8271
 1035SOL     OW 3285   1.882   0.129   2.369 -0.4199  0.0817 -0.4279
 1035SOL    HW1 3286   1.799   0.086   2.404  0.0279 -0.3017  0.2087
 1035SOL    HW2 3287   1.945   0.145   2.446  1.5222 -2.7830 -1.2153
 1036SOL     OW 3288   0.498   1.200   3.143  0.4977 -0.1025 -0.1362
 1036SOL    HW1 3289   0.563   1.220   3.217 -1.7410  0.1753  1.8941
 1036SOL    HW2 3290   0.442   1.281   3.127  0.4567 -0.4119 -1.6680
 1037SOL     OW 3291   1.267   4.146   1.442  0.1119  0.3727  0.3250
 1037SOL    HW1 3292   1.289   4.056   1.406 -1.7577  0.1970 -0.5075
 1037SOL    HW2 3293   1.335   4.212   1.410  0.2650 -0.3505 -0.8758
 1038SOL     OW 3294   3.010   3.605   0.382  0.4758 -0.1279 -0.1358
 1038SOL    HW1 3295   2.991   3.521   0.432  0.4570  0.0747  0.2013
 1038SOL    HW2 3296   3.108   3.626   0.386  0.2942  0.5986  0.9669
 1039SOL     OW 3297   1.365   3.542   4.104  0.5341 -0.0683  0.6430
 1039SOL    HW1 3298   1.339   3.522   4.199 -2.2586  0.8272  0.1526
 1039SOL    HW2 3299   1.343   3.638   4.084 -2.8224 -1.1736 -1.9747
 1040SOL     OW 3300   1.193   2.021   3.498  0.1701  0.3003  0.3733
 1040SOL    HW1 3301   1.281   2.000   3.456  0.0439  0.0537  0.2313
 1040SOL    HW2 3302   1.185   1.972   3.584  0.5711  1.0673  0.8662
 1041SOL     OW 3303   3.842   1.811   4.017 -0.4383  0.2050 -0.1664
 1041SOL    HW1 3304   3.753   1.855   4.001 -1.1739 -0.8453  0.8384
 1041SOL    HW2 3305   3.866   1.820   4.114  0.3950  0.1777 -0.3669
 1042SOL     OW 3306   1.284   3.285   2.300  0.1379  0.2096 -0.3905
 1042SOL    HW1 3307   1.302   3.383   2.291  1.9344  0.0042  0.5144
 1042SOL    HW2 3308   1.281   3.261   2.397 -1.0364 -0.5216 -0.5908
 1043SOL     OW 3309   3.532   1.684   3.626  0.0265  0.4081  0.3425
 1043SOL    HW1 3310   3.596   1.661   3.699 -0.6200 -0.1053  0.7577
 1043SOL    HW2 3311   3.551   1.777   3.593  0.4625  0.5562  1.0058
 1044SOL     OW 3312   1.925   1.811   0.653  0.3279  0.2234  0.1330
 1044SOL    HW1 3313   1.902   1.860   0.569  0.9842 -0.4518 -0.4616
 1044SOL    HW2 3314   1.989   1.866   0.706 -0.4440  0.8567  0.4266
 1045SOL     OW 3315   2.479   3.208   1.024 -0.7901  0.0954 -0.1929
 1045SOL    HW1 3316   2.465   3.273   1.099  0.5559  0.3824 -0.1624
 1045SOL    HW2 3317   2.393   3.162   1.004 -1.3906  0.7042  0.8916
 1046SOL     OW 3318   1.621   3.350   2.897  0.5955 -0.3027  0.2132
 1046SOL    HW1 3319   1.623   3.298   2.983  0.8654 -1.0369 -0.2295
 1046SOL    HW2 3320   1.641   3.289   2.821 -0.7676  0.1038 -0.5020
 1047SOL     OW 3321   3.638   0.638   0.706  0.0913 -0.3312 -0.2011
 1047SOL    HW1 3322   3.702   0.699   0.659  1.0667  0.3042  1.8212
 1047SOL    HW2 3323   3.671   0.622   0.800 -2.8000  0.1804  1.0054
 1048SOL     OW 3324   0.189   3.133   1.336  0.1665  0.2219  0.4773
 1048SOL    HW1 3325   0.257   3.206   1.327  0.8147 -0.4821 -0.4313
 1048SOL    HW2 3326   0.121   3.160   1.405  1.2704  0.9948  1.2948
 1049SOL     OW 3327   2.697   2.632   0.388 -0.2601  0.1650 -0.3575
 1049SOL    HW1 3328   2.774   2.677   0.433 -1.3666  0.6082  1.1939
 1049SOL    HW2 3329   2.671   2.551   0.441 -2.4397  1.4360  0.6812
 1050SOL     OW 3330   0.719   2.134   3.436 -0.1750 -0.1342 -0.3309
 1050SOL    HW1 3331   0.805   2.112   3.390  0.0353  0.6233 -0.3238
 1050SOL    HW2 3332   0.651   2.064   3.414  0.8637 -1.5950  0.9111
 1051SOL     OW 3333   0.540   3.529   1.701 -0.0058  0.2497  0.0062
 1051SOL    HW1 3334   0.475   3.587   1.651  0.0694  0.1344 -0.2271
 1051SOL    HW2 3335   0.502   3.507   1.791 -0.5474 -0.2927 -0.3476
 1052SOL     OW 3336   1.336   3.143   4.231  0.4866 -0.2295 -0.5929
 1052SOL    HW1 3337   1.319   3.141   4.133 -1.2240  0.2294 -0.3333
 1052SOL    HW2 3338   1.394   3.065   4.256  0.9913 -0.3090 -1.9537
 1053SOL     OW 3339   2.535   4.109   2.449 -0.2289 -0.7568 -0.1882
 1053SOL    HW1 3340   2.506   4.097   2.544  1.7059 -1.3995  0.3815
 1053SOL    HW2 3341   2.472   4.171   2.403 -0.0043  1.3620  2.1237
 1054SOL     OW 3342   4.157   2.022   3.512 -0.1003 -0.7025  1.1900
 1054SOL    HW1 3343   4.090   2.004   3.440 -0.1977  0.8334  0.8630
 1054SOL    HW2 3344   4.115   2.076   3.584  1.1435  1.6948  0.2170
 1055SOL     OW 3345   4.137   0.745   2.502 -0.4443  0.8665 -0.3337
 1055SOL    HW1 3346   4.203   0.757   2.576  0.3033 -1.4576 -0.5405
 1055SOL    HW2 3347   4.156   0.812   2.430  2.1904 -0.1745 -0.7043
 1056SOL     OW 3348   0.967   1.631   0.154  0.3324  0.1898  0.1111
 1056SOL    HW1 3349   0.993   1.634   0.057  1.3250 -2.6630  0.1997
 1056SOL    HW2 3350   0.870   1.610   0.161  0.2689  0.3516 -0.2609
 1057SOL     OW 3351   1.332   1.840   2.479  0.2161  0.3484 -0.0485
 1057SOL    HW1 3352   1.342   1.939   2.475  0.1090  0.3281 -1.6775
 1057SOL    HW2 3353   1.235   1.816   2.475  0.1997  0.1808  1.0718
 1058SOL     OW 3354   2.679   1.633   3.004  0.1720 -0.0359  0.4114
 1058SOL    HW1 3355   2.716   1.707   2.948  0.1452  0.5472  1.1367
 1058SOL    HW2 3356   2.601   1.592   2.957 -0.0241  0.6240  0.1475
 1059SOL     OW 3357   4.072   3.111   0.330  0.6344  0.5952 -0.2938
 1059SOL    HW1 3358   4.073   3.145   0.235 -0.6816 -1.9796 -1.3238
 1059SOL    HW2 3359   4.122   3.025   0.334 -0.7362 -0.1747  0.9913
 1060SOL     OW 3360   3.499   2.623   1.567 -0.1487 -0.2115  0.2594
 1060SOL    HW1 3361   3.446   2.571   1.634 -1.1778  1.2689  0.6416
 1060SOL    HW2 3362   3.594   2.630   1.599 -0.4870 -0.0516  1.2683
 1061ETH      C 3363   3.563   1.677   1.966  0.0026 -0.0664 -0.0031
 1061ETH     C1 3364   3.588   1.657   2.119  0.2508  0.0870  0.2293
 1061ETH      O 3365   3.719   1.634   2.138 -0.1627 -0.4008 -0.3707
 1061ETH      H 3366   3.468   1.731   1.959  0.5548  1.1255  1.1589
 1061ETH     H1 3367   3.546   1.581   1.915  0.0457 -1.5427  2.5845
 1061ETH     H2 3368   3.649   1.719   1.913 -0.0270 -2.8936 -2.5790
 1061ETH     H3 3369   3.545   1.744   2.170 -0.3804 -0.4838  0.7012
 1061ETH     H4 3370   3.527   1.572   2.152  1.3379 -0.3489  1.1896
 1061ETH     H5 3371   3.727   1.597   2.228  1.1667  1.3277  0.2736
 1062ETH      C 3372   2.076   4.093   3.188 -0.3025 -0.2083  0.0198
 1062ETH     C1 3373   2.097   4.247   3.211  0.3193  0.4193  0.6266
 1062ETH      O 3374   2.012   4.289   3.318  0.4559  0.3441  0.0002
 1062ETH      H 3375   1.970   4.075   3.209 -0.8665  1.0121 -1.5493
 1062ETH     H1 3376   2.143   4.041   3.258 -1.0706 -2.4278 -0.8031
 1062ETH     H2 3377   2.088   4.062   3.083  1.1800  1.9382 -0.5051
 1062ETH     H3 3378   2.204   4.269   3.220  0.2631  1.4054 -0.7726
 1062ETH     H4 3379   2.059   4.285   3.115  3.3399  0.9441 -0.4729
 1062ETH     H5 3380   2.058   4.365   3.358  0.4347  1.1858 -1.4941
 1063ETH      C 3381   0.890   1.849   4.114 -0.7208 -0.1996  0.1214
 1063ETH     C1 3382   0.922   1.704   4.104  0.4308  0.4422  0.3892
 1063ETH      O 3383   1.045   1.686   4.163 -0.0237 -0.1688 -0.3865
 1063ETH      H 3384   0.871   1.865   4.220  1.2083 -0.4009  0.5376
 1063ETH     H1 3385   0.803   1.889   4.061 -1.0841  1.9514  2.1616
 1063ETH     H2 3386   0.983   1.902   4.090 -1.7104  1.9552  0.7910
 1063ETH     H3 3387   0.840   1.647   4.150  0.4422 -0.6484 -0.8838
 1063ETH     H4 3388   0.921   1.661   4.003 -1.6409  0.2841  0.4335
 1063ETH     H5 3389   1.110   1.731   4.107 -1.0957 -0.8641 -2.3010
 1064ETH      C 3390   2.794   4.104   3.595 -0.0042 -0.2316  0.1938
 1064ETH     C1 3391   2.907   4.016   3.644  0.0951  0.4440  0.1246
 1064ETH      O 3392   2.865   3.970   3.776  0.0178 -0.1475  0.3203
 1064ETH      H 3393   2.751   4.147   3.687 -0.7911 -3.6536  1.5920
 1064ETH     H1 3394   2.736   4.047   3.522 -0.0622 -1.8603  1.4403
 1064ETH     H2 3395   2.826   4.183   3.527  0.2747 -1.6872 -1.4393
 1064ETH     H3 3396   2.927   3.931   3.577 -1.9678 -2.2583  2.6784
 1064ETH     H4 3397   2.983   4.092   3.663 -1.7564  1.7659  3.0194
 1064ETH     H5 3398   2.817   3.889   3.755  1.7168 -1.4168  1.0710
 1065ETH      C 3399   3.417   1.126   3.949  0.5521 -0.3263  0.0666
 1065ETH     C1 3400   3.518   1.021   3.982  0.3425  0.1792  0.1114
 1065ETH      O 3401   3.564   0.962   3.868 -0.3505  0.2838 -0.1232
 1065ETH      H 3402   3.397   1.187   4.038 -0.2254 -0.7918  0.2173
 1065ETH     H1 3403   3.323   1.082   3.915  0.3750 -0.0136  0.1544
 1065ETH     H2 3404   3.453   1.185   3.863  0.3111  0.8060  0.7220
 1065ETH     H3 3405   3.597   1.050   4.052 -0.1739  2.1227 -0.0631
 1065ETH     H4 3406   3.454   0.944   4.027  0.4168  0.3094  0.4441
 1065ETH     H5 3407   3.642   1.015   3.843 -0.2341  0.4801  0.6588
 1066ETH      C 3408   3.808   0.169   3.266  0.2064 -0.2406  0.1264
 1066ETH     C1 3409   3.686   0.241   3.197 -0.2809  0.3080 -0.0867
 1066ETH      O 3410   3.700   0.210   3.063  0.8231 -0.1378 -0.3101
 1066ETH      H 3411   3.796   0.187   3.373  0.2799 -1.6358  0.3853
 1066ETH     H1 3412   3.903   0.217   3.237 -0.8782  1.2508 -1.1471
 1066ETH     H2 3413   3.810   0.062   3.240 -0.9074 -0.4572  0.8926
 1066ETH     H3 3414   3.594   0.203   3.243  0.5115 -2.6103 -0.7313
 1066ETH     H4 3415   3.700   0.348   3.219  0.3826  0.0380  0.9004
 1066ETH     H5 3416   3.688   0.295   3.018  1.5051  0.3829  0.4627
 1067ETH      C 3417   3.692   0.399   0.317  0.1049 -0.1421 -0.5523
 1067ETH     C1 3418   3.744   0.334   0.442 -0.8749  0.4510 -0.2043
 1067ETH      O 3419   3.695   0.200   0.453  0.3925 -0.0691  0.3828
 1067ETH      H 3420   3.588   0.435   0.322  0.6473  1.4130  0.1877
 1067ETH     H1 3421   3.720   0.339   0.230 -1.3702  1.3251 -2.1136
 1067ETH     H2 3422   3.755   0.489   0.314  0.3648 -0.3252 -0.6056
 1067ETH     H3 3423   3.853   0.334   0.440 -0.8415  1.9118  0.4043
 1067ETH     H4 3424   3.714   0.384   0.535  0.4872 -2.8560  2.2110
 1067ETH     H5 3425   3.601   0.213   0.432  0.3258 -1.2493 -0.1339
 1068ETH      C 3426   3.573   0.479   1.536 -0.0029 -0.1227  0.0174
 1068ETH     C1 3427   3.686   0.415   1.623 -0.4715 -0.3768 -0.3033
 1068ETH      O 3428   3.713   0.508   1.728  0.1036 -0.4153 -0.0323
 1068ETH      H 3429   3.622   0.560   1.482 -0.7160  1.4791  1.6790
 1068ETH     H1 3430   3.494   0.530   1.592  2.1080  1.0032  2.1524
 1068ETH     H2 3431   3.543   0.401   1.464  0.6161  0.6369 -1.0905
 1068ETH     H3 3432   3.657   0.318   1.665 -1.8799  0.1505  0.0118
 1068ETH     H4 3433   3.784   0.408   1.575 -0.8549  0.7305 -1.3052
 1068ETH     H5 3434   3.671   0.594   1.714  0.0042 -0.5222 -0.3858
 1069ETH      C 3435   2.570   2.453   4.234 -0.2167  0.1338 -0.5987
 1069ETH     C1 3436   2.497   2.395   4.350  0.3665  0.5260 -0.9740
 1069ETH      O 3437   2.362   2.434   4.336 -0.2812  0.2350 -0.6085
 1069ETH      H 3438   2.679   2.441   4.241 -0.2314  0.2847 -0.0302
 1069ETH     H1 3439   2.545   2.560   4.233  1.2011  0.4907 -0.0200
 1069ETH     H2 3440   2.544   2.416   4.134 -0.5612 -1.2426 -0.0232
 1069ETH     H3 3441   2.487   2.286   4.349  0.8389  0.4768 -0.4704
 1069ETH     H4 3442   2.551   2.435   4.437 -0.8632  1.7179 -0.7079
 1069ETH     H5 3443   2.357   2.506   4.401  0.3370 -1.0513  0.9509
 1070ETH      C 3444   1.239   0.108   1.033 -0.4985  0.6815  0.4035
 1070ETH     C1 3445   1.221  -0.030   1.082 -0.3957  0.3094 -0.8503
 1070ETH      O 3446   1.090  -0.060   1.132 -0.0434  0.2139  0.0190
 1070ETH      H 3447   1.226   0.178   1.116 -0.6218  0.3719  0.6502
 1070ETH     H1 3448   1.180   0.135   0.945  0.0276  1.0997  0.1786
 1070ETH     H2 3449   1.343   0.117   0.999 -0.3798 -2.1907 -0.2651
 1070ETH     H3 3450   1.254  -0.100   1.004 -2.1256 -0.2050 -1.1445
 1070ETH     H4 3451   1.295  -0.053   1.160 -0.9652  0.3498 -0.3008
 1070ETH     H5 3452   1.056   0.020   1.177  0.3958 -0.7482  2.1665
 1071ETH      C 3453   3.419   0.491   3.457  0.1918  0.6539 -0.2680
 1071ETH     C1 3454   3.346   0.629   3.449 -0.0219 -0.5243  0.4661
 1071ETH      O 3455   3.423   0.696   3.352  0.4660  0.0425  0.1318
 1071ETH      H 3456   3.404   0.436   3.363 -0.2337  2.3052 -1.2040
 1071ETH     H1 3457   3.378   0.434   3.541 -2.1727 -0.0387 -1.7963
 1071ETH     H2 3458   3.527   0.487   3.478 -0.2538 -1.6757  2.1657
 1071ETH     H3 3459   3.242   0.615   3.419 -0.4709  1.0610  1.1652
 1071ETH     H4 3460   3.346   0.678   3.548  2.4678 -2.4630  1.5404
 1071ETH     H5 3461   3.367   0.704   3.272  1.5542  1.8477 -0.5124
 1072ETH      C 3462   0.739   3.926   4.148 -0.1063 -0.5976  1.4205
 1072ETH     C1 3463   0.820   3.996   4.033 -0.1881  0.0168  0.1926
 1072ETH      O 3464   0.895   3.901   3.957  0.3126 -0.4243  0.1559
 1072ETH      H 3465   0.807   3.876   4.218  0.3781  0.4666  1.7239
 1072ETH     H1 3466   0.669   3.849   4.113 -0.0490 -0.1957  0.3754
 1072ETH     H2 3467   0.675   3.996   4.203  0.7930  1.1787  0.3041
 1072ETH     H3 3468   0.745   4.039   3.964 -0.2140  0.0105  0.2174
 1072ETH     H4 3469   0.880   4.078   4.074  0.0857  1.0353 -2.0688
 1072ETH     H5 3470   0.898   3.824   4.016 -1.4838 -0.1033  0.7360
 1073ETH      C 3471   3.144   1.175   1.566 -0.4267 -0.0179 -0.6161
 1073ETH     C1 3472   3.132   1.299   1.478 -0.2381  0.3166  0.3068
 1073ETH      O 3473   3.037   1.387   1.539 -0.4504  0.6262 -0.0867
 1073ETH      H 3474   3.215   1.106   1.520 -1.4084  0.7691 -3.4858
 1073ETH     H1 3475   3.049   1.120   1.571  0.3706 -1.3629  0.5776
 1073ETH     H2 3476   3.172   1.202   1.669 -0.8636 -0.7652 -0.2858
 1073ETH     H3 3477   3.231   1.344   1.459 -0.1361 -0.9068 -2.6637
 1073ETH     H4 3478   3.107   1.268   1.376  2.2692 -1.0268  0.0083
 1073ETH     H5 3479   3.051   1.478   1.506 -2.4832  1.3471  0.8207
 1074ETH      C 3480   0.350   4.174   0.125 -1.4140  0.0246 -0.4041
 1074ETH     C1 3481   0.214   4.103   0.089 -0.4976  1.0791 -0.0442
 1074ETH      O 3482   0.207   4.073  -0.046  0.1742 -0.6398  0.3155
 1074ETH      H 3483   0.368   4.268   0.071  2.6366 -0.0920  0.4695
 1074ETH     H1 3484   0.425   4.100   0.095 -2.3338 -0.8523 -0.5837
 1074ETH     H2 3485   0.362   4.199   0.231  0.1504 -0.3749 -0.4636
 1074ETH     H3 3486   0.205   4.011   0.149 -1.3008  0.2458 -1.3924
 1074ETH     H4 3487   0.128   4.168   0.110 -0.1857  1.4122  0.2177
 1074ETH     H5 3488   0.113   4.050  -0.058  0.1173  0.4935 -1.7765
 1075ETH      C 3489   3.007   2.408   0.252 -0.1590 -0.1055  0.2761
 1075ETH     C1 3490   3.014   2.386   0.401 -0.2799  0.5287 -0.1787
 1075ETH      O 3491   2.981   2.250   0.433  0.4485  0.4926 -0.1339
 1075ETH      H 3492   3.032   2.321   0.191  1.0115 -0.3414  1.0706
 1075ETH     H1 3493   3.075   2.491   0.233  0.9758 -1.2400 -0.7378
 1075ETH     H2 3494   2.904   2.436   0.227 -0.9917 -2.8094  0.2792
 1075ETH     H3 3495   3.111   2.423   0.437  0.3756  0.7215 -2.0344
 1075ETH     H4 3496   2.940   2.452   0.448 -0.4408 -0.2950  0.7451
 1075ETH     H5 3497   2.884   2.247   0.425  0.4590 -0.6168 -0.0903
 1076ETH      C 3498   0.592   2.424   3.715  0.2753  0.3284  0.3936
 1076ETH     C1 3499   0.534   2.286   3.710  0.7111  0.1032 -0.4938
 1076ETH      O 3500   0.640   2.196   3.687  0.7690 -0.4798 -0.3429
 1076ETH      H 3501   0.641   2.440   3.618 -1.7797 -0.5687 -0.8712
 1076ETH     H1 3502   0.651   2.440   3.805  0.2402  0.2267  0.4349
 1076ETH     H2 3503   0.508   2.493   3.726  1.2911  1.6609 -0.0150
 1076ETH     H3 3504   0.486   2.259   3.805 -0.0047 -0.4036 -0.9826
 1076ETH     H4 3505   0.456   2.288   3.633  0.1528  2.2090  0.0827
 1076ETH     H5 3506   0.658   2.193   3.591 -0.1631 -0.9003 -0.5156
 1077ETH      C 3507   2.285   3.587   4.259  0.0156 -0.2012 -0.1067
 1077ETH     C1 3508   2.232   3.717   4.314  0.6757 -0.8965 -0.0658
 1077ETH      O 3509   2.093   3.736   4.284 -0.2675 -0.2796 -0.0150
 1077ETH      H 3510   2.393   3.595   4.241  0.1018 -1.4442 -0.2633
 1077ETH     H1 3511   2.229   3.569   4.167  0.5119  2.0693 -0.9154
 1077ETH     H2 3512   2.259   3.507   4.330 -2.6684 -0.2362 -1.0343
 1077ETH     H3 3513   2.246   3.723   4.423  0.3700 -0.4389 -0.0469
 1077ETH     H4 3514   2.291   3.799   4.271  0.3176 -0.6551 -0.1086
 1077ETH     H5 3515   2.052   3.657   4.245  0.2831 -0.6592  0.1502
 1078ETH      C 3516   0.630   3.442   3.235  1.1013  0.1675  0.3127
 1078ETH     C1 3517   0.677   3.314   3.161  0.6861  0.3120  0.3073
 1078ETH      O 3518   0.662   3.199   3.248 -0.3037 -0.1721  0.5996
 1078ETH      H 3519   0.686   3.471   3.325 -0.6348  0.8347  1.2275
 1078ETH     H1 3520   0.529   3.423   3.272  1.1355 -2.1008 -0.6273
 1078ETH     H2 3521   0.622   3.534   3.175 -0.0761 -0.8496 -1.1560
 1078ETH     H3 3522   0.620   3.297   3.069  0.2177 -2.0598  0.9523
 1078ETH     H4 3523   0.780   3.329   3.127  0.8068  1.0253  0.9508
 1078ETH     H5 3524   0.718   3.129   3.210 -1.2515 -1.4921  1.5756
 1079ETH      C 3525   3.788   2.256   1.247  0.9387 -0.2389 -0.9830
 1079ETH     C1 3526   3.766   2.386   1.328 -0.2085 -0.5828  0.6796
 1079ETH      O 3527   3.707   2.483   1.238  0.2359 -0.1297  0.4170
 1079ETH      H 3528   3.850   2.269   1.157  1.2277  1.5353 -0.5653
 1079ETH     H1 3529   3.690   2.225   1.210  0.8015  1.3951 -2.1505
 1079ETH     H2 3530   3.827   2.174   1.308 -2.4672 -0.0171  1.8016
 1079ETH     H3 3531   3.705   2.376   1.418 -1.1003  0.8437  0.2585
 1079ETH     H4 3532   3.869   2.415   1.351 -0.6173  1.0711  0.5623
 1079ETH     H5 3533   3.708   2.568   1.285  0.2099 -1.1280  2.3283
 1080ETH      C 3534   0.655   0.254   3.369  0.1575 -0.4058  0.5006
 1080ETH     C1 3535   0.796   0.304   3.387 -1.0895  0.6217 -0.2234
 1080ETH      O 3536   0.805   0.382   3.514  0.0493  0.4913  0.1661
 1080ETH      H 3537   0.642   0.180   3.289 -0.9039 -2.5781  2.5681
 1080ETH     H1 3538   0.588   0.341   3.364 -0.6226 -1.0644 -1.1727
 1080ETH     H2 3539   0.630   0.186   3.451  2.0836 -1.8293 -0.0083
 1080ETH     H3 3540   0.857   0.213   3.387  0.4956  1.6397  0.2400
 1080ETH     H4 3541   0.835   0.373   3.311  0.4399  1.8274  1.5540
 1080ETH     H5 3542   0.740   0.338   3.573  1.9848 -1.4387  1.0275
 1081ETH      C 3543   0.239   1.416   2.438  0.2883 -0.4380 -0.1037
 1081ETH     C1 3544   0.100   1.402   2.369  0.2948 -0.0472 -0.1813
 1081ETH      O 3545   0.097   1.507   2.262  0.3659 -0.5356 -0.2454
 1081ETH      H 3546   0.258   1.512   2.488  1.1313 -0.5077 -0.2764
 1081ETH     H1 3547   0.313   1.397   2.360 -0.0005  1.0039 -0.7616
 1081ETH     H2 3548   0.248   1.336   2.513 -0.8404  0.8771  1.5173
 1081ETH     H3 3549   0.094   1.301   2.327 -2.2051  0.6536 -1.7430
 1081ETH     H4 3550   0.011   1.413   2.431 -1.4416 -2.1059 -2.1065
 1081ETH     H5 3551   0.025   1.479   2.203  0.8400  0.7137 -1.4485
 1082ETH      C 3552   0.204   0.852   0.499  0.4875  0.4844 -0.1742
 1082ETH     C1 3553   0.173   0.912   0.358  0.0802  0.3048 -0.8520
 1082ETH      O 3554   0.248   0.852   0.248  0.2140  0.1828  0.9333
 1082ETH      H 3555   0.305   0.887   0.524 -0.3437  1.5487  1.9945
 1082ETH     H1 3556   0.192   0.744   0.514 -0.2055  0.6535  0.5864
 1082ETH     H2 3557   0.138   0.908   0.567  0.8613 -0.0994  0.6892
 1082ETH     H3 3558   0.066   0.896   0.340 -0.6036  2.4796  0.8193
 1082ETH     H4 3559   0.186   1.021   0.365  0.5517  0.1688  0.7079
 1082ETH     H5 3560   0.341   0.879   0.259 -0.2421  2.5028 -0.4064
 1083ETH      C 3561   3.768   1.271   4.198  0.5713 -0.5114 -0.5308
 1083ETH     C1 3562   3.786   1.362   4.077  0.5644  0.4708  0.8425
 1083ETH      O 3563   3.702   1.312   3.970  0.3279  0.1518  0.0155
 1083ETH      H 3564   3.670   1.293   4.242  1.0016 -1.2799  0.8795
 1083ETH     H1 3565   3.841   1.286   4.278 -0.6088  0.8436  0.3563
 1083ETH     H2 3566   3.769   1.166   4.167  1.5644 -0.6985  0.0908
 1083ETH     H3 3567   3.752   1.463   4.103 -1.0820 -0.3226  1.8960
 1083ETH     H4 3568   3.891   1.372   4.046  1.7241 -1.4105  3.7563
 1083ETH     H5 3569   3.613   1.346   3.987 -0.5879 -1.9043 -0.3459
 1084ETH      C 3570   0.097   2.067   0.337 -0.1806 -0.9323  1.0212
 1084ETH     C1 3571   0.052   1.938   0.267  0.2508 -0.0542  0.3841
 1084ETH      O 3572   0.175   1.864   0.242  0.8998 -0.0023 -0.3986
 1084ETH      H 3573   0.009   2.131   0.354  0.3845  0.2824 -0.4016
 1084ETH     H1 3574   0.163   2.115   0.264  0.0456 -3.0898 -0.2623
 1084ETH     H2 3575   0.153   2.046   0.429  2.9611  1.4770 -0.1574
 1084ETH     H3 3576  -0.017   1.876   0.325  0.2166  0.3567  0.7866
 1084ETH     H4 3577  -0.006   1.949   0.175  0.8260  3.0648  0.2872
 1084ETH     H5 3578   0.183   1.890   0.149 -2.3249  2.7780 -0.0917
 1085ETH      C 3579   2.043   3.295   4.222  0.8670 -0.3371  0.0799
 1085ETH     C1 3580   1.970   3.409   4.144  0.1210  0.1578 -0.3334
 1085ETH      O 3581   1.928   3.520   4.228 -0.3929  0.0622  0.0657
 1085ETH      H 3582   1.979   3.256   4.302 -0.0366 -0.4062 -0.6518
 1085ETH     H1 3583   2.149   3.309   4.248  0.8258 -1.0818  0.6941
 1085ETH     H2 3584   2.059   3.209   4.155 -0.9117 -1.3322  0.8670
 1085ETH     H3 3585   2.044   3.441   4.071 -1.0535  2.3239 -0.6486
 1085ETH     H4 3586   1.887   3.354   4.099 -0.2654 -0.0260  0.5814
 1085ETH     H5 3587   1.834   3.506   4.247 -0.4739  0.0947 -0.3140
 1086ETH      C 3588   2.326   3.922   3.952 -0.7087 -0.2428 -0.0049
 1086ETH     C1 3589   2.435   4.031   3.976  0.0515 -0.1940  0.2133
 1086ETH      O 3590   2.544   4.007   3.881  0.2471 -0.1488 -0.3614
 1086ETH      H 3591   2.256   3.934   4.036  0.6333  0.6164  1.0494
 1086ETH     H1 3592   2.365   3.822   3.972 -0.4507  0.2239  2.1523
 1086ETH     H2 3593   2.281   3.929   3.852 -0.3170 -1.5587 -0.2911
 1086ETH     H3 3594   2.386   4.125   3.948 -0.1519  0.8163  3.4914
 1086ETH     H4 3595   2.466   4.050   4.080  0.7777 -1.3293  0.2202
 1086ETH     H5 3596   2.622   4.061   3.904  0.3029 -0.5649  0.4519
 1087ETH      C 3597   2.616   3.343   4.155 -0.1967  0.4617 -0.0757
 1087ETH     C1 3598   2.637   3.197   4.166 -0.2023  0.4777 -0.2932
 1087ETH      O 3599   2.761   3.173   4.223  0.5252 -0.3818  0.3116
 1087ETH      H 3600   2.709   3.383   4.113  0.2267  1.5553  1.8287
 1087ETH     H1 3601   2.622   3.388   4.254 -0.5550 -0.8648  0.5797
 1087ETH     H2 3602   2.523   3.362   4.099 -0.4850 -1.5965 -0.3695
 1087ETH     H3 3603   2.553   3.146   4.214  0.2714 -1.1343 -1.1133
 1087ETH     H4 3604   2.641   3.149   4.067 -0.3022 -2.7970  1.1489
 1087ETH     H5 3605   2.769   3.240   4.293 -4.1012  0.5141  0.2662
 1088ETH      C 3606   3.493   2.949   4.043  0.7990 -0.7913 -0.1660
 1088ETH     C1 3607   3.395   2.837   3.995  0.5222 -0.3055  0.0659
 1088ETH      O 3608   3.473   2.723   3.963  0.7508  0.1345 -0.2435
 1088ETH      H 3609   3.576   2.973   3.975  0.4204  0.3299 -0.2546
 1088ETH     H1 3610   3.539   2.932   4.141  0.3025  1.0331  0.4228
 1088ETH     H2 3611   3.438   3.044   4.047  1.1527 -0.5679 -0.5520
 1088ETH     H3 3612   3.323   2.814   4.074  0.1594  1.2971  0.2368
 1088ETH     H4 3613   3.336   2.881   3.914  0.1698 -0.5044  0.2163
 1088ETH     H5 3614   3.527   2.737   3.883  1.7336 -0.7157  0.2479
 1089ETH      C 3615   1.060   3.626   2.372 -0.3967 -0.2588  0.0435
 1089ETH     C1 3616   1.194   3.587   2.417  0.4824 -0.6785  0.0715
 1089ETH      O 3617   1.283   3.557   2.307  0.5843  0.0384  0.3321
 1089ETH      H 3618   1.065   3.733   2.347  1.1073  0.8358  4.0931
 1089ETH     H1 3619   0.974   3.611   2.439 -0.4445 -2.6416 -0.4910
 1089ETH     H2 3620   1.038   3.567   2.283 -0.8806 -0.0109 -0.0059
 1089ETH     H3 3621   1.235   3.672   2.472  0.8961 -0.9737  0.2262
 1089ETH     H4 3622   1.177   3.501   2.483  0.7270 -1.2494 -0.5921
 1089ETH     H5 3623   1.332   3.639   2.291  0.1167  0.8126  2.4907
 1090ETH      C 3624   2.327   0.241   2.223 -0.0054  0.6827  0.2097
 1090ETH     C1 3625   2.304   0.150   2.341 -0.4874 -0.5568  0.4576
 1090ETH      O 3626   2.357   0.027   2.298  0.6223 -0.1780  0.0120
 1090ETH      H 3627   2.427   0.223   2.183 -1.2385 -3.8343 -1.3886
 1090ETH     H1 3628   2.317   0.345   2.257 -0.5276  1.1337 -1.2413
 1090ETH     H2 3629   2.249   0.227   2.148 -0.4650  0.3221  0.7459
 1090ETH     H3 3630   2.367   0.184   2.424  0.0932 -0.3793 -0.0557
 1090ETH     H4 3631   2.200   0.135   2.374 -0.9465  0.6232 -0.3720
 1090ETH     H5 3632   2.308  -0.006   2.221  2.7715 -0.3919 -1.3403
 1091ETH      C 3633   1.732   2.107   1.610 -0.2686  0.5681 -1.0356
 1091ETH     C1 3634   1.770   2.019   1.732  0.2895  0.6217  0.1641
 1091ETH      O 3635   1.700   1.888   1.733 -0.0612  0.2135  0.9459
 1091ETH      H 3636   1.737   2.038   1.524  1.5136 -2.1978  1.1269
 1091ETH     H1 3637   1.810   2.183   1.601  0.2315  0.0805 -0.9022
 1091ETH     H2 3638   1.634   2.154   1.623  0.2855  0.9585  3.0193
 1091ETH     H3 3639   1.880   2.017   1.727  0.2378  0.2109 -3.0043
 1091ETH     H4 3640   1.753   2.079   1.823  1.0761  1.1535 -0.0275
 1091ETH     H5 3641   1.612   1.910   1.697  0.9837 -0.0430 -2.0379
 1092ETH      C 3642   2.742   3.046   2.425 -0.0749 -0.6843 -0.1291
 1092ETH     C1 3643   2.812   3.188   2.413 -0.7403 -0.6913  0.0378
 1092ETH      O 3644   2.782   3.250   2.542 -0.0147  0.1733  0.5111
 1092ETH      H 3645   2.750   2.990   2.331 -0.2347  0.3490 -0.7695
 1092ETH     H1 3646   2.636   3.073   2.439 -0.0086  1.3515 -2.8797
 1092ETH     H2 3647   2.777   2.983   2.508 -1.4494  0.2419  1.1989
 1092ETH     H3 3648   2.918   3.171   2.389 -0.6185  2.7835 -2.7522
 1092ETH     H4 3649   2.762   3.239   2.329 -0.0105 -2.2689 -1.4206
 1092ETH     H5 3650   2.848   3.322   2.547  0.5412 -0.2905  0.0877
 1093ETH      C 3651   0.384   3.547   0.546  0.9669  0.0282  0.2152
 1093ETH     C1 3652   0.366   3.606   0.687 -0.3122 -0.4822  0.2626
 1093ETH      O 3653   0.490   3.678   0.721  0.3410  0.5425 -0.2831
 1093ETH      H 3654   0.447   3.458   0.535  1.2631  0.4344 -1.6190
 1093ETH     H1 3655   0.436   3.610   0.473  1.6860 -2.5648 -1.6603
 1093ETH     H2 3656   0.283   3.514   0.519  0.2254 -0.3724  3.0903
 1093ETH     H3 3657   0.278   3.671   0.678 -0.9341 -1.2003  0.9492
 1093ETH     H4 3658   0.345   3.527   0.760 -1.9583 -1.2964 -1.0241
 1093ETH     H5 3659   0.506   3.737   0.645  0.8182  2.6341  1.3329
 1094ETH      C 3660   0.054   3.323   4.210 -0.2246  0.2497 -0.9215
 1094ETH     C1 3661  -0.046   3.338   4.324 -0.5603 -0.6454 -0.0285
 1094ETH      O 3662  -0.141   3.238   4.321  0.2709 -0.0987  0.1659
 1094ETH      H 3663   0.009   3.316   4.110 -0.5655 -0.8711 -0.7039
 1094ETH     H1 3664   0.102   3.225   4.223  0.7370  0.8607  0.3532
 1094ETH     H2 3665   0.126   3.405   4.214  0.7828 -0.6111 -0.7191
 1094ETH     H3 3666   0.001   3.330   4.422 -2.9073 -0.1828  1.2068
 1094ETH     H4 3667  -0.095   3.433   4.296 -3.0959 -0.9737  2.7973
 1094ETH     H5 3668  -0.208   3.260   4.254  0.7706 -0.9046 -0.6242
 1095ETH      C 3669   4.041   2.632   3.180  0.1735 -0.8732  0.4671
 1095ETH     C1 3670   3.991   2.549   3.062  0.2422 -0.1786  0.3297
 1095ETH      O 3671   3.929   2.429   3.101 -0.8238  0.5641 -0.2900
 1095ETH      H 3672   4.098   2.719   3.144  0.3741 -0.7743  1.0269
 1095ETH     H1 3673   4.105   2.571   3.245  0.5569 -1.4145 -0.3977
 1095ETH     H2 3674   3.975   2.681   3.251 -0.1843  0.3188 -0.6536
 1095ETH     H3 3675   3.915   2.615   3.018  0.6117  0.3265  0.4379
 1095ETH     H4 3676   4.056   2.530   2.976 -0.2708  0.3143 -0.1720
 1095ETH     H5 3677   3.891   2.391   3.020 -0.3423 -0.9138  0.1503
 1096ETH      C 3678   2.893   3.915   2.794 -0.4843  0.2153 -0.2384
 1096ETH     C1 3679   2.792   4.018   2.838  0.2630 -0.6175  0.1504
 1096ETH      O 3680   2.789   4.136   2.751 -0.0680 -0.1212 -0.5429
 1096ETH      H 3681   2.995   3.955   2.795  0.2542 -1.5320 -1.2380
 1096ETH     H1 3682   2.875   3.877   2.692 -2.2720  2.7778 -0.9979
 1096ETH     H2 3683   2.878   3.822   2.851 -0.8782 -0.6628 -1.7134
 1096ETH     H3 3684   2.693   3.973   2.846 -0.2727  0.4840 -0.1248
 1096ETH     H4 3685   2.820   4.052   2.939  1.2546 -0.0323 -0.2997
 1096ETH     H5 3686   2.699   4.149   2.716  0.3087  0.5675 -1.2772
 1097ETH      C 3687   1.247   3.953   2.632  0.0758  0.4370  0.3718
 1097ETH     C1 3688   1.316   4.066   2.699 -0.5306 -0.8111 -0.1398
 1097ETH      O 3689   1.385   4.140   2.596  0.0677 -0.3130 -0.1322
 1097ETH      H 3690   1.197   3.991   2.543  0.6059 -1.3251 -0.7242
 1097ETH     H1 3691   1.171   3.912   2.700 -0.1900 -0.2768 -0.3451
 1097ETH     H2 3692   1.319   3.872   2.613  1.3568  1.6862 -0.3061
 1097ETH     H3 3693   1.243   4.135   2.743  0.4861  1.0834 -1.2730
 1097ETH     H4 3694   1.379   4.039   2.785  2.6258  2.1427 -1.3039
 1097ETH     H5 3695   1.340   4.112   2.514  1.3220  0.4375 -1.1091
 1098ETH      C 3696   0.837   2.715   3.633  0.3520 -0.4443  0.9799
 1098ETH     C1 3697   0.898   2.744   3.498  0.2591 -0.1562 -1.0353
 1098ETH      O 3698   0.794   2.743   3.411  0.2356  0.1494  0.0015
 1098ETH      H 3699   0.825   2.606   3.643 -1.7084 -0.2355  1.0940
 1098ETH     H1 3700   0.745   2.770   3.653  0.7517  1.2731 -1.3863
 1098ETH     H2 3701   0.908   2.736   3.714 -0.5617  1.0938  1.4175
 1098ETH     H3 3702   0.947   2.842   3.507 -1.3551  0.4738  2.7494
 1098ETH     H4 3703   0.968   2.665   3.468 -1.6535 -2.5310  0.3396
 1098ETH     H5 3704   0.712   2.723   3.459  0.7428  1.7460  1.6380
 1099ETH      C 3705   0.705   0.189   2.994  0.0434 -0.5112  0.4759
 1099ETH     C1 3706   0.610   0.106   2.912  0.5705 -0.6529 -0.0477
 1099ETH      O 3707   0.521   0.034   2.999  0.7335 -0.2630  0.2092
 1099ETH      H 3708   0.770   0.125   3.055  1.9835 -0.1289 -1.0916
 1099ETH     H1 3709   0.648   0.257   3.058 -0.5344  1.9903 -2.4682
 1099ETH     H2 3710   0.766   0.258   2.934  0.0077  0.4943  1.5484
 1099ETH     H3 3711   0.559   0.164   2.835  3.4237  0.4793 -1.2080
 1099ETH     H4 3712   0.669   0.026   2.866 -0.6531 -2.4281  1.3033
 1099ETH     H5 3713   0.574  -0.045   3.020  2.2120  0.1304 -1.7697
 1100ETH      C 3714   4.084   1.976   1.829 -0.1967  0.4726 -0.1424
 1100ETH     C1 3715   4.198   1.884   1.788  0.2167 -0.1633 -0.5584
 1100ETH      O 3716   4.318   1.947   1.822  0.3144  0.0448 -0.5916
 1100ETH      H 3717   4.044   1.957   1.930 -1.2294 -1.3417 -0.8394
 1100ETH     H1 3718   4.005   1.949   1.759  2.0695  0.1929 -2.7514
 1100ETH     H2 3719   4.102   2.083   1.815 -1.6843  0.5686 -1.5190
 1100ETH     H3 3720   4.187   1.790   1.844  1.8888  0.0972  0.2962
 1100ETH     H4 3721   4.203   1.860   1.682 -2.2626  0.8159 -0.9745
 1100ETH     H5 3722   4.283   1.998   1.898  0.3570 -0.5532 -0.1672
 1101ETH      C 3723   3.060   0.890   0.237 -0.3364 -0.2125  0.1762
 1101ETH     C1 3724   3.130   0.983   0.137  0.2299  0.2217  0.6947
 1101ETH      O 3725   3.027   1.042   0.061  0.2185 -0.1754 -0.3221
 1101ETH      H 3726   3.024   0.801   0.184 -1.5120  1.5231 -2.1066
 1101ETH     H1 3727   2.977   0.938   0.290  2.0765 -0.4849  4.6704
 1101ETH     H2 3728   3.132   0.863   0.315  1.8009 -0.3018 -1.7113
 1101ETH     H3 3729   3.177   1.061   0.198  1.0535  0.3583 -0.0884
 1101ETH     H4 3730   3.197   0.926   0.071 -0.2398  0.8581 -0.3611
 1101ETH     H5 3731   3.005   0.994  -0.021  1.6952 -0.2724 -0.6903
 1102ETH      C 3732   4.226   0.646   3.753  0.2835 -0.4130  0.3219
 1102ETH     C1 3733   4.351   0.629   3.836  0.4584 -0.3539  0.6786
 1102ETH      O 3734   4.461   0.642   3.748 -0.2577  0.0329  0.3462
 1102ETH      H 3735   4.140   0.641   3.821 -1.5321  0.0115 -1.8039
 1102ETH     H1 3736   4.204   0.564   3.683  1.4460 -1.3081  0.9742
 1102ETH     H2 3737   4.220   0.742   3.701 -0.6603 -1.4987 -1.7559
 1102ETH     H3 3738   4.365   0.701   3.917  1.4732 -0.2258  0.4040
 1102ETH     H4 3739   4.351   0.537   3.896  1.8473  0.1614  1.5210
 1102ETH     H5 3740   4.446   0.723   3.697  0.2852 -0.2058 -0.2008
 1103ETH      C 3741   3.177   2.196   3.140  0.6147  0.3179 -0.0274
 1103ETH     C1 3742   3.281   2.214   3.247  0.5148 -0.5044  0.6505
 1103ETH      O 3743   3.220   2.202   3.375 -0.2379  0.0174 -0.3907
 1103ETH      H 3744   3.076   2.234   3.162  0.3733  0.8969 -1.9905
 1103ETH     H1 3745   3.171   2.088   3.124 -1.1857  0.2506  0.8251
 1103ETH     H2 3746   3.204   2.234   3.041 -2.5585 -0.1112 -1.1576
 1103ETH     H3 3747   3.369   2.148   3.240  1.4876  0.7529  0.5561
 1103ETH     H4 3748   3.326   2.314   3.237  1.3391 -0.9392 -0.2676
 1103ETH     H5 3749   3.125   2.220   3.369 -0.3723 -0.6092 -0.2550
 1104ETH      C 3750   3.235   1.810   0.882  0.3087  0.4146  0.1192
 1104ETH     C1 3751   3.225   1.833   1.029 -0.0537  0.3036 -0.6672
 1104ETH      O 3752   3.118   1.749   1.081  0.0022  0.1855 -0.1867
 1104ETH      H 3753   3.318   1.869   0.841 -0.4725  0.0010 -2.2266
 1104ETH     H1 3754   3.152   1.845   0.819  1.2958  0.1506 -1.3792
 1104ETH     H2 3755   3.251   1.705   0.854  2.0865  0.6417  0.1933
 1104ETH     H3 3756   3.319   1.809   1.081 -0.3016 -0.7940 -0.7014
 1104ETH     H4 3757   3.203   1.938   1.050 -0.3900 -0.1743  1.6379
 1104ETH     H5 3758   3.056   1.809   1.125 -0.9183 -0.7740 -0.1415
 1105ETH      C 3759   0.789   3.617   0.435 -0.0220 -0.2966 -0.5581
 1105ETH     C1 3760   0.819   3.514   0.543  0.3218  0.4519  0.7066
 1105ETH      O 3761   0.881   3.579   0.655  0.3544 -0.1348  0.5279
 1105ETH      H 3762   0.731   3.566   0.356  1.2633  0.3300 -1.9634
 1105ETH     H1 3763   0.885   3.661   0.404 -1.0929  0.8453 -2.4660
 1105ETH     H2 3764   0.727   3.691   0.485  0.4500  0.0320 -0.4521
 1105ETH     H3 3765   0.722   3.474   0.576  0.3505  0.4707  0.8109
 1105ETH     H4 3766   0.881   3.430   0.511  1.9235  2.3029 -1.4515
 1105ETH     H5 3767   0.872   3.674   0.638  0.9253 -0.1748 -0.0482
 1106ETH      C 3768   2.538   2.681   2.759  0.6737 -1.0264  0.1211
 1106ETH     C1 3769   2.535   2.530   2.796  0.0867  0.2868  0.1202
 1106ETH      O 3770   2.592   2.455   2.687  0.0136  0.2166  0.0427
 1106ETH      H 3771   2.481   2.709   2.669 -0.3965 -1.0725  0.7588
 1106ETH     H1 3772   2.640   2.721   2.751  0.2732  0.0779  0.2943
 1106ETH     H2 3773   2.475   2.733   2.833 -0.9448 -0.5073 -1.5366
 1106ETH     H3 3774   2.592   2.517   2.888  0.8979  1.4628 -0.1951
 1106ETH     H4 3775   2.428   2.507   2.806  0.0490  0.9296  1.2703
 1106ETH     H5 3776   2.520   2.410   2.640  0.6356  0.8736 -1.5997
 1107ETH      C 3777   2.269   3.676   2.490  0.1836  0.0184 -0.3663
 1107ETH     C1 3778   2.357   3.704   2.611  0.4381 -0.0308 -0.2268
 1107ETH      O 3779   2.493   3.702   2.558  0.7630 -0.1775  0.0408
 1107ETH      H 3780   2.299   3.583   2.440  1.5106  1.4550 -2.4222
 1107ETH     H1 3781   2.262   3.766   2.428 -1.2032  0.2838  0.1567
 1107ETH     H2 3782   2.172   3.664   2.538  1.2456 -0.7783  1.7345
 1107ETH     H3 3783   2.341   3.805   2.649  1.4883  0.2494 -0.4949
 1107ETH     H4 3784   2.348   3.619   2.680  0.6109 -1.0169 -1.3844
 1107ETH     H5 3785   2.517   3.610   2.535  2.7980  0.4723 -0.6364
 1108ETH      C 3786   3.986   3.492   0.929  0.5610  0.3521  0.5701
 1108ETH     C1 3787   3.964   3.624   0.871 -0.0299 -0.2838 -0.1072
 1108ETH      O 3788   3.863   3.698   0.944 -0.7980 -0.0193  0.3049
 1108ETH      H 3789   3.891   3.440   0.948  0.4427  0.1132 -0.5908
 1108ETH     H1 3790   4.043   3.489   1.022 -0.0090 -1.7804  0.9240
 1108ETH     H2 3791   4.031   3.417   0.863 -0.5569  1.2718 -1.3127
 1108ETH     H3 3792   4.057   3.682   0.873 -0.3746  0.4086 -2.0331
 1108ETH     H4 3793   3.932   3.612   0.767 -0.7196 -2.3041  0.2960
 1108ETH     H5 3794   3.880   3.791   0.918  2.6704 -0.8359 -0.9689
 1109ETH      C 3795   1.075   0.808   1.249 -0.1820  0.1210 -0.6382
 1109ETH     C1 3796   1.049   0.734   1.383 -0.0864 -0.4606  0.2838
 1109ETH      O 3797   1.106   0.787   1.498  0.1356 -0.1569 -0.0452
 1109ETH      H 3798   1.185   0.802   1.241 -0.0349 -3.2465  1.5802
 1109ETH     H1 3799   1.036   0.909   1.235 -1.4493 -0.4610 -1.4040
 1109ETH     H2 3800   1.033   0.749   1.167 -2.2625 -0.5764  0.8499
 1109ETH     H3 3801   0.940   0.739   1.393 -0.0924  1.9269 -0.2773
 1109ETH     H4 3802   1.072   0.628   1.372 -1.4868 -0.6709 -0.8947
 1109ETH     H5 3803   1.085   0.882   1.491 -0.9286 -0.2403  1.5241
 1110ETH      C 3804   1.299   0.725   3.030  0.1099 -0.0469 -0.0814
 1110ETH     C1 3805   1.400   0.740   3.147  0.3202 -0.0290  0.1124
 1110ETH      O 3806   1.334   0.821   3.243  0.5958  0.2902 -0.1543
 1110ETH      H 3807   1.302   0.816   2.968 -0.3273  0.1405  0.1657
 1110ETH     H1 3808   1.195   0.704   3.057 -0.2159  0.2978 -1.0524
 1110ETH     H2 3809   1.327   0.648   2.958  3.2587  1.5190 -0.7281
 1110ETH     H3 3810   1.424   0.644   3.196 -0.0057 -0.3363 -0.3251
 1110ETH     H4 3811   1.489   0.784   3.102  0.7621 -2.4574 -1.5695
 1110ETH     H5 3812   1.295   0.764   3.311  1.6970  0.5620  0.7217
 1111ETH      C 3813   2.501   3.876   3.505  0.8344 -0.2537 -0.6965
 1111ETH     C1 3814   2.514   3.782   3.621 -0.4435  0.5288  0.8806
 1111ETH      O 3815   2.629   3.818   3.692 -0.1550 -0.3325  0.1740
 1111ETH      H 3816   2.491   3.978   3.542 -0.1169  0.0526 -1.7420
 1111ETH     H1 3817   2.405   3.853   3.458 -0.4947  2.6867  0.3622
 1111ETH     H2 3818   2.584   3.864   3.434  0.9959  0.1321 -0.5751
 1111ETH     H3 3819   2.417   3.791   3.671 -1.1962 -1.4080 -0.1259
 1111ETH     H4 3820   2.518   3.676   3.591 -0.2201  0.8099 -0.1458
 1111ETH     H5 3821   2.600   3.888   3.753  1.3768  0.3657  0.1273
 1112ETH      C 3822   0.195   0.303   4.049  0.3931 -0.4788  0.0607
 1112ETH     C1 3823   0.214   0.178   4.134 -0.3272 -0.1080 -0.1475
 1112ETH      O 3824   0.227   0.066   4.055 -0.1321  0.0568 -0.1247
 1112ETH      H 3825   0.184   0.387   4.118  1.2505 -1.0836  0.9629
 1112ETH     H1 3826   0.109   0.279   3.985  0.3384  1.1625 -0.5223
 1112ETH     H2 3827   0.277   0.321   3.978  0.0394  1.3831  0.0788
 1112ETH     H3 3828   0.306   0.182   4.193 -0.9393  0.6824  0.7790
 1112ETH     H4 3829   0.129   0.163   4.202  1.6309 -1.3351  2.1884
 1112ETH     H5 3830   0.303   0.016   4.090 -0.7631 -0.5009  0.4735
 1113ETH      C 3831   2.048   0.020   2.832  0.0834 -0.0735  0.0200
 1113ETH     C1 3832   2.068   0.054   2.689  0.4815 -0.1500  0.6538
 1113ETH      O 3833   1.980   0.154   2.646 -0.4641  0.4505  0.2597
 1113ETH      H 3834   2.128  -0.046   2.866  2.4615  2.9594  0.7782
 1113ETH     H1 3835   1.946  -0.010   2.859  0.8345 -0.2254  2.9346
 1113ETH     H2 3836   2.052   0.112   2.892  0.4906 -0.4275  0.5413
 1113ETH     H3 3837   2.170   0.082   2.661 -0.1359 -0.4805 -2.2773
 1113ETH     H4 3838   2.046  -0.029   2.620 -1.9655  1.3222 -0.4861
 1113ETH     H5 3839   1.939   0.194   2.725  1.9201 -2.1831  3.1030
 1114ETH      C 3840   0.508   0.183   0.735  0.7487 -0.1122 -0.8870
 1114ETH     C1 3841   0.579   0.280   0.634 -0.1075  0.4202  0.1169
 1114ETH      O 3842   0.666   0.371   0.699 -0.2764  0.7672  0.3431
 1114ETH      H 3843   0.570   0.107   0.785 -1.1060 -0.4688  1.0434
 1114ETH     H1 3844   0.426   0.127   0.688  0.9966 -1.7438  0.4860
 1114ETH     H2 3845   0.466   0.255   0.807  0.8161  0.2485 -1.2077
 1114ETH     H3 3846   0.638   0.216   0.567  2.0041  1.3460  0.9842
 1114ETH     H4 3847   0.492   0.325   0.584 -1.7128 -1.0936  1.4274
 1114ETH     H5 3848   0.623   0.457   0.681 -0.9785  0.7043  1.6510
 1115ETH      C 3849   4.057   1.622   2.167 -0.4143  0.2017 -0.1288
 1115ETH     C1 3850   4.057   1.528   2.048 -0.6708  0.4325 -0.0746
 1115ETH      O 3851   4.157   1.424   2.059  0.0228  0.2809 -0.1168
 1115ETH      H 3852   3.974   1.694   2.177  0.4576  1.3161 -0.6611
 1115ETH     H1 3853   4.150   1.678   2.153  1.4257 -2.4676  0.7744
 1115ETH     H2 3854   4.070   1.566   2.261  3.0818  1.5464  0.3318
 1115ETH     H3 3855   3.958   1.482   2.056 -0.0159 -0.9379  0.5668
 1115ETH     H4 3856   4.060   1.580   1.952  1.2264 -0.1459 -0.3764
 1115ETH     H5 3857   4.161   1.371   1.978 -0.4763 -2.9213  1.7891
 1116ETH      C 3858   0.939   3.209   0.844 -0.7520  0.5316  0.0874
 1116ETH     C1 3859   0.852   3.092   0.882  0.0684 -0.3869  0.6390
 1116ETH      O 3860   0.764   3.132   0.989  0.2514 -0.3461 -0.1161
 1116ETH      H 3861   0.961   3.199   0.738 -0.9318 -3.7105  0.3143
 1116ETH     H1 3862   1.036   3.204   0.896 -0.2812  2.1119 -0.5549
 1116ETH     H2 3863   0.896   3.307   0.870  0.9425  1.3192  0.0791
 1116ETH     H3 3864   0.783   3.063   0.801  0.0263  1.3079  0.0222
 1116ETH     H4 3865   0.915   3.006   0.906  0.3351  0.2202  2.2441
 1116ETH     H5 3866   0.732   3.057   1.042 -2.0636  0.8343  0.2837
 1117ETH      C 3867   1.236   0.974   0.308 -0.3779  0.2007 -0.3988
 1117ETH     C1 3868   1.158   1.027   0.429 -0.5574  0.1132  0.0178
 1117ETH      O 3869   1.114   1.160   0.396 -0.5625 -0.1565 -0.6310
 1117ETH      H 3870   1.192   0.985   0.208  2.1454  0.0127 -1.6006
 1117ETH     H1 3871   1.230   0.865   0.316 -1.5829  0.2951  0.2646
 1117ETH     H2 3872   1.340   1.008   0.318 -0.7637  1.0610  0.9092
 1117ETH     H3 3873   1.074   0.957   0.439 -0.1312 -0.1014  3.0506
 1117ETH     H4 3874   1.225   1.017   0.515  0.0291  1.1709 -0.3005
 1117ETH     H5 3875   1.055   1.152   0.319 -1.9317  0.7466  0.2734
 1118ETH      C 3876   0.349   0.601   2.952  0.6116 -0.0708  0.0139
 1118ETH     C1 3877   0.425   0.581   3.078 -0.4189  0.2004  0.5495
 1118ETH      O 3878   0.516   0.688   3.084 -0.0791 -0.6956 -0.3230
 1118ETH      H 3879   0.333   0.705   2.920 -0.9337 -0.6446 -1.1447
 1118ETH     H1 3880   0.245   0.574   2.971  0.2257  0.3264 -1.4284
 1118ETH     H2 3881   0.398   0.547   2.870  1.3049  0.9046 -0.2368
 1118ETH     H3 3882   0.368   0.591   3.171  0.5213 -2.1981  1.4619
 1118ETH     H4 3883   0.484   0.489   3.082  2.8672  2.1622  1.1447
 1118ETH     H5 3884   0.470   0.767   3.115 -2.8279 -1.0209 -3.0770
 1119ETH      C 3885   1.050   0.527   2.269  0.2824 -0.2413  0.3217
 1119ETH     C1 3886   0.954   0.414   2.271 -0.6387 -0.0991 -0.1545
 1119ETH      O 3887   0.816   0.448   2.292 -0.1979 -0.3560  0.0729
 1119ETH      H 3888   1.059   0.564   2.372  0.1534 -2.5582  1.2314
 1119ETH     H1 3889   1.018   0.604   2.199 -0.0035 -1.1935 -0.6288
 1119ETH     H2 3890   1.149   0.487   2.246  0.0522 -0.3681 -0.4638
 1119ETH     H3 3891   0.964   0.385   2.166  2.0213 -1.0832  0.2740
 1119ETH     H4 3892   0.987   0.324   2.324 -1.3436  0.3086  1.0137
 1119ETH     H5 3893   0.786   0.384   2.359 -0.8400 -0.1862 -0.0419
 1120ETH      C 3894   2.426   0.878   4.156  0.0550 -0.1554 -0.1675
 1120ETH     C1 3895   2.396   0.738   4.101  0.2939 -0.1389 -0.0186
 1120ETH      O 3896   2.364   0.760   3.961 -0.0360 -0.0700  0.3274
 1120ETH      H 3897   2.329   0.930   4.149 -0.5972 -1.2646  0.3162
 1120ETH     H1 3898   2.491   0.932   4.087  1.9821  0.5080  2.0432
 1120ETH     H2 3899   2.472   0.872   4.256  1.4306  0.3920 -0.7420
 1120ETH     H3 3900   2.482   0.670   4.108  1.0130  0.8521  1.2574
 1120ETH     H4 3901   2.310   0.700   4.156  0.2776 -0.7223 -0.4347
 1120ETH     H5 3902   2.320   0.679   3.928  0.6856  0.3422 -1.8466
 1121ETH      C 3903   1.584   0.478   2.948  0.3853 -0.1661 -0.1503
 1121ETH     C1 3904   1.730   0.508   2.995 -0.1726  0.0850  0.4810
 1121ETH      O 3905   1.801   0.390   3.039 -0.2245  0.4248  0.3276
 1121ETH      H 3906   1.538   0.576   2.933 -2.4609 -1.6209 -1.7432
 1121ETH     H1 3907   1.530   0.433   3.032 -0.1077 -1.9567 -1.3527
 1121ETH     H2 3908   1.571   0.424   2.853  0.8507  0.4906 -0.5975
 1121ETH     H3 3909   1.790   0.556   2.917  0.9726 -0.9262  0.6948
 1121ETH     H4 3910   1.725   0.585   3.073  0.8745  0.1553  0.4966
 1121ETH     H5 3911   1.853   0.373   2.959 -0.3819  2.3127 -0.2199
 1122ETH      C 3912   0.779   0.869   3.375  0.9225  0.4033 -0.5195
 1122ETH     C1 3913   0.842   0.859   3.238 -0.4436  0.3495  0.0952
 1122ETH      O 3914   0.775   0.960   3.151  0.0963  0.0971 -0.0098
 1122ETH      H 3915   0.782   0.772   3.426 -2.9543  0.4529  0.0907
 1122ETH     H1 3916   0.673   0.894   3.372  0.5573 -0.8376  0.7755
 1122ETH     H2 3917   0.832   0.943   3.436  0.6877 -0.5418  0.8771
 1122ETH     H3 3918   0.952   0.859   3.242 -0.3885 -1.4617 -0.5460
 1122ETH     H4 3919   0.824   0.758   3.200  1.3425 -0.3391  0.9633
 1122ETH     H5 3920   0.681   0.937   3.144  0.1345  0.4091 -2.4106
 1123ETH      C 3921   1.463   1.660   1.359 -0.3721 -0.9840  0.3360
 1123ETH     C1 3922   1.329   1.725   1.421 -0.5413 -0.2081 -0.0036
 1123ETH      O 3923   1.331   1.867   1.417 -0.0978  0.6251  0.0902
 1123ETH      H 3924   1.551   1.675   1.424 -1.7027  2.2389  1.5820
 1123ETH     H1 3925   1.485   1.709   1.264 -1.9323 -0.7001  0.0946
 1123ETH     H2 3926   1.465   1.551   1.347  2.2207 -1.1744  1.6664
 1123ETH     H3 3927   1.244   1.685   1.364 -0.8275  1.5494 -0.8761
 1123ETH     H4 3928   1.335   1.696   1.526  2.9259  2.4672  0.7006
 1123ETH     H5 3929   1.319   1.890   1.324  0.1139  2.4715  0.4931
 1124ETH      C 3930   1.523   3.128   3.641  0.8657 -0.8098 -0.9680
 1124ETH     C1 3931   1.424   3.181   3.535 -0.6613 -0.0473  0.4379
 1124ETH      O 3932   1.352   3.076   3.469 -0.3457  0.0339 -0.3030
 1124ETH      H 3933   1.473   3.069   3.718 -2.1383  2.3604 -0.2590
 1124ETH     H1 3934   1.587   3.210   3.675  0.4336 -0.5321 -0.8327
 1124ETH     H2 3935   1.591   3.062   3.585  1.1169 -0.9978 -0.4460
 1124ETH     H3 3936   1.359   3.258   3.578  0.0945  1.2150 -0.6041
 1124ETH     H4 3937   1.482   3.235   3.459  0.0770 -2.3158 -0.6924
 1124ETH     H5 3938   1.411   3.002   3.491  1.0028  0.1976 -2.9515
 1125ETH      C 3939   4.101   0.954   2.067 -1.0041  0.2344 -0.3898
 1125ETH     C1 3940   4.202   0.939   2.181  0.5292 -0.1229  0.1366
 1125ETH      O 3941   4.133   0.947   2.305 -0.1173  0.0586 -0.4962
 1125ETH      H 3942   4.124   0.886   1.984 -1.1365 -0.7379  0.3548
 1125ETH     H1 3943   4.102   1.061   2.046  1.6010  0.5552  0.9953
 1125ETH     H2 3944   4.004   0.905   2.087 -0.7887 -0.8335 -1.7589
 1125ETH     H3 3945   4.259   0.845   2.172  1.6812  0.4378  1.2952
 1125ETH     H4 3946   4.289   1.005   2.178 -1.3971  2.5559 -0.2745
 1125ETH     H5 3947   4.149   1.035   2.343 -0.7879  0.2328 -0.6027
 1126ETH      C 3948   2.470   4.012   0.977 -0.7771  0.1633  0.1263
 1126ETH     C1 3949   2.593   3.958   1.057  0.2967 -0.4457  0.1083
 1126ETH      O 3950   2.602   4.042   1.175  0.4838  0.2997  0.1091
 1126ETH      H 3951   2.482   4.116   0.944 -0.6344 -0.2652 -1.2274
 1126ETH     H1 3952   2.399   4.002   1.060 -0.2244  2.0537  0.8770
 1126ETH     H2 3953   2.452   3.942   0.895  0.6534  1.3351 -1.2629
 1126ETH     H3 3954   2.582   3.856   1.096  0.4091 -0.7325 -0.5878
 1126ETH     H4 3955   2.693   3.967   1.011  0.4286  0.3312  0.5271
 1126ETH     H5 3956   2.684   4.021   1.224  1.7769 -3.3908 -3.0918
 1127ETH      C 3957   0.299   3.755   3.604 -0.5478 -0.1277  0.3498
 1127ETH     C1 3958   0.391   3.705   3.493  0.3086 -0.1384 -0.2583
 1127ETH      O 3959   0.452   3.577   3.513  0.4734 -0.4200 -0.6148
 1127ETH      H 3960   0.343   3.745   3.704  0.4523 -1.2404 -0.1791
 1127ETH     H1 3961   0.210   3.692   3.613 -0.3293 -0.3789  0.7853
 1127ETH     H2 3962   0.273   3.861   3.588  0.5231  0.1181  0.1466
 1127ETH     H3 3963   0.324   3.692   3.407  0.5234  0.4314 -0.5157
 1127ETH     H4 3964   0.469   3.780   3.473  1.1964 -0.3938  1.9774
 1127ETH     H5 3965   0.535   3.598   3.559  0.2618  1.8878 -1.1651
 1128ETH      C 3966   2.061   1.891   1.101  0.0398 -0.2463  0.2546
 1128ETH     C1 3967   2.137   1.925   0.971  0.1533  0.4973  0.2152
 1128ETH      O 3968   2.046   1.949   0.865  0.1561 -0.1668  1.0087
 1128ETH      H 3969   1.976   1.954   1.125 -0.7358 -0.6891 -1.1774
 1128ETH     H1 3970   2.136   1.896   1.181 -0.6458 -0.5237  0.9290
 1128ETH     H2 3971   2.030   1.786   1.101  1.3435 -0.6711 -0.7718
 1128ETH     H3 3972   2.203   2.012   0.977 -0.1788  0.9565 -1.9947
 1128ETH     H4 3973   2.210   1.844   0.954 -0.6289 -0.2073  0.1680
 1128ETH     H5 3974   1.988   2.020   0.897 -1.0099 -0.2383 -0.8264
 1129ETH      C 3975   3.762   1.973   0.817 -0.2145 -0.1706  0.0495
 1129ETH     C1 3976   3.834   2.106   0.769 -0.5855  0.3980 -0.3998
 1129ETH      O 3977   3.731   2.190   0.718 -0.0003 -0.1135 -0.0582
 1129ETH      H 3978   3.823   1.888   0.849 -0.2625 -0.1214  0.2789
 1129ETH     H1 3979   3.701   1.945   0.730 -1.0340  0.3934  0.4253
 1129ETH     H2 3980   3.699   2.001   0.903  1.1151  0.8411  0.7265
 1129ETH     H3 3981   3.899   2.143   0.849  2.7589 -1.1347 -2.1579
 1129ETH     H4 3982   3.906   2.085   0.688  0.1982 -2.7724  0.9700
 1129ETH     H5 3983   3.779   2.270   0.690  0.8268 -0.6444 -0.1946
 1130ETH      C 3984   2.108   1.883   2.025  0.4208 -0.1985  0.0969
 1130ETH     C1 3985   2.242   1.871   1.936  0.0533  0.4718 -0.1173
 1130ETH      O 3986   2.200   1.868   1.801 -0.0306 -0.0063 -0.1738
 1130ETH      H 3987   2.052   1.972   1.994 -2.2678 -1.4077  1.1667
 1130ETH     H1 3988   2.143   1.893   2.128  1.1460  2.2720 -0.3154
 1130ETH     H2 3989   2.030   1.808   2.009  0.3968 -0.0576 -0.4605
 1130ETH     H3 3990   2.313   1.950   1.964  1.1342 -1.1866  2.2022
 1130ETH     H4 3991   2.292   1.776   1.962 -1.4892 -0.9341 -2.0361
 1130ETH     H5 3992   2.119   1.814   1.796 -0.2985  0.4535 -0.9460
 1131ETH      C 3993   1.289   2.157   1.855 -0.8135  0.4231 -0.4291
 1131ETH     C1 3994   1.287   2.023   1.919  0.2276 -0.1545  0.1632
 1131ETH      O 3995   1.254   1.932   1.822  0.2800  0.4801  0.2022
 1131ETH      H 3996   1.246   2.216   1.937 -2.1230  0.3715 -1.0439
 1131ETH     H1 3997   1.217   2.162   1.772 -1.2129  2.6802 -0.0117
 1131ETH     H2 3998   1.384   2.195   1.817 -0.4806 -0.4639 -0.4969
 1131ETH     H3 3999   1.389   2.010   1.957 -0.0761 -1.5493  0.5525
 1131ETH     H4 4000   1.214   2.019   2.000  0.8826 -1.2838  0.7297
 1131ETH     H5 4001   1.164   1.953   1.792 -1.3148 -0.1018  3.9891
 1132ETH      C 4002   2.278   3.080   2.564 -0.6496 -0.2280  1.0972
 1132ETH     C1 4003   2.261   3.231   2.532  0.6410 -0.0504 -0.2112
 1132ETH      O 4004   2.215   3.245   2.398  0.5374 -0.1133 -0.0491
 1132ETH      H 4005   2.179   3.032   2.561 -0.2456 -1.0695  0.9259
 1132ETH     H1 4006   2.329   3.065   2.660 -0.0533  2.1067  1.2016
 1132ETH     H2 4007   2.340   3.033   2.487 -0.9223  0.8824  0.1666
 1132ETH     H3 4008   2.172   3.247   2.595 -0.4545 -0.0305 -1.7124
 1132ETH     H4 4009   2.338   3.302   2.564 -0.3376  1.1273 -0.3904
 1132ETH     H5 4010   2.289   3.274   2.342 -1.1852  2.3928 -1.2644
 1133ETH      C 4011   2.501   3.780   1.409 -0.0760  0.9295  0.0355
 1133ETH     C1 4012   2.387   3.701   1.353  0.5537 -0.0445 -1.0541
 1133ETH      O 4013   2.364   3.746   1.219 -0.0705 -0.4311  0.0096
 1133ETH      H 4014   2.519   3.762   1.516 -0.8970  3.0843  0.5961
 1133ETH     H1 4015   2.474   3.885   1.389  2.4844  1.2788 -2.1653
 1133ETH     H2 4016   2.592   3.751   1.355  0.3027 -0.1123  1.1853
 1133ETH     H3 4017   2.396   3.592   1.364 -0.6771  0.0312  1.9093
 1133ETH     H4 4018   2.295   3.724   1.409  0.9209  0.0329 -0.4767
 1133ETH     H5 4019   2.440   3.712   1.168  1.9782  3.3466  0.1387
 1134ETH      C 4020   1.704   0.566   3.570 -0.3690 -0.0299 -0.1278
 1134ETH     C1 4021   1.743   0.527   3.424  0.1079 -0.4230 -0.1040
 1134ETH      O 4022   1.869   0.470   3.438  0.0909  0.4168  0.6194
 1134ETH      H 4023   1.793   0.607   3.619  0.1195 -0.8802 -0.2905
 1134ETH     H1 4024   1.661   0.485   3.630 -0.1635  0.6139  0.9083
 1134ETH     H2 4025   1.625   0.642   3.569 -0.9071 -0.4922  2.2021
 1134ETH     H3 4026   1.668   0.466   3.372 -1.0174  1.0570 -0.3054
 1134ETH     H4 4027   1.758   0.620   3.367  1.9158  0.6647  1.9876
 1134ETH     H5 4028   1.940   0.533   3.457  1.2341 -0.8158  0.5454
 1135ETH      C 4029   3.148   1.932   2.234 -0.3429 -0.3476 -0.5496
 1135ETH     C1 4030   3.269   2.024   2.259 -0.4314 -0.4492  0.1338
 1135ETH      O 4031   3.388   1.955   2.225  0.5483 -0.0763  0.2600
 1135ETH      H 4032   3.176   1.844   2.293 -0.1212  0.6930  0.9372
 1135ETH     H1 4033   3.144   1.902   2.128 -3.3132 -1.2826 -0.2679
 1135ETH     H2 4034   3.054   1.973   2.274  0.2867  0.7761 -0.1868
 1135ETH     H3 4035   3.259   2.118   2.203 -1.5787 -0.7190 -0.1282
 1135ETH     H4 4036   3.274   2.048   2.366  0.6032 -0.0513  0.0069
 1135ETH     H5 4037   3.414   1.907   2.305  0.1914  0.1579  0.5232
 1136ETH      C 4038   1.890   2.782   3.061  0.1124 -0.8012 -0.6127
 1136ETH     C1 4039   1.902   2.628   3.076 -0.1396  0.5319 -0.6535
 1136ETH      O 4040   2.019   2.582   3.137 -0.7361  0.0387  0.1585
 1136ETH      H 4041   1.785   2.804   3.042  0.1442 -1.0964 -1.1341
 1136ETH     H1 4042   1.952   2.822   2.980 -0.0483  0.9798  0.0933
 1136ETH     H2 4043   1.909   2.831   3.157 -1.7907 -1.3172  0.0699
 1136ETH     H3 4044   1.822   2.596   3.143  0.5031  1.7055  0.7469
 1136ETH     H4 4045   1.896   2.573   2.981  3.2423 -0.4918 -0.3974
 1136ETH     H5 4046   2.093   2.633   3.098 -0.1246  0.7296  2.0870
 1137ETH      C 4047   0.437   1.931   0.099  0.1648  0.2789 -0.1346
 1137ETH     C1 4048   0.568   1.948   0.012  0.8366  0.9257  0.4582
 1137ETH      O 4049   0.543   1.887  -0.106  0.2699  0.4241 -0.3709
 1137ETH      H 4050   0.413   1.824   0.098  1.3519 -0.0094 -1.2624
 1137ETH     H1 4051   0.349   1.984   0.062 -1.8200 -1.7752  1.4172
 1137ETH     H2 4052   0.460   1.976   0.196  0.1155  3.1806 -1.3678
 1137ETH     H3 4053   0.612   2.047  -0.004 -1.6158  1.9106 -0.8166
 1137ETH     H4 4054   0.652   1.894   0.057  0.0932  0.5607  1.4641
 1137ETH     H5 4055   0.454   1.909  -0.137  0.4599 -0.9548 -2.0402
 1138ETH      C 4056   3.301   1.337   0.027  0.1482 -0.3368  0.1617
 1138ETH     C1 4057   3.197   1.393  -0.073  0.0627  0.4395 -0.1877
 1138ETH      O 4058   3.250   1.502  -0.147 -0.6494  0.1365  0.0262
 1138ETH      H 4059   3.393   1.300  -0.021 -0.4844 -0.8057 -0.7066
 1138ETH     H1 4060   3.262   1.258   0.092  0.7969  2.2908  4.0943
 1138ETH     H2 4061   3.331   1.418   0.095  1.3991  0.4596 -1.2480
 1138ETH     H3 4062   3.167   1.314  -0.142  0.9955  1.4273 -1.8014
 1138ETH     H4 4063   3.112   1.425  -0.012 -0.9581  0.3624 -1.5260
 1138ETH     H5 4064   3.204   1.495  -0.232 -1.6508  2.1080  0.3561
 1139ETH      C 4065   1.769   1.896   2.134 -0.0164  0.2279 -0.6268
 1139ETH     C1 4066   1.742   1.769   2.229  0.3004 -0.4025  0.2926
 1139ETH      O 4067   1.808   1.788   2.358 -0.2117  0.3824  0.2626
 1139ETH      H 4068   1.877   1.914   2.130  0.0232  0.5081  0.9878
 1139ETH     H1 4069   1.729   1.992   2.168 -0.9993 -0.3123 -0.2272
 1139ETH     H2 4070   1.722   1.878   2.037 -1.4701 -1.3580  0.3136
 1139ETH     H3 4071   1.634   1.752   2.241  0.4331 -0.5864  1.3101
 1139ETH     H4 4072   1.788   1.687   2.173  0.7339  1.1082 -1.6851
 1139ETH     H5 4073   1.819   1.701   2.401 -6.0327 -1.3702 -0.8569
 1140ETH      C 4074   3.462   3.146   0.612 -0.1280 -0.7186  0.2129
 1140ETH     C1 4075   3.559   3.059   0.696  0.2679 -0.0194 -0.4288
 1140ETH      O 4076   3.509   2.925   0.694 -0.3391 -0.3424  0.3368
 1140ETH      H 4077   3.358   3.152   0.647 -0.2420 -0.8285 -0.1011
 1140ETH     H1 4078   3.455   3.111   0.509  0.7959  0.7483 -0.3835
 1140ETH     H2 4079   3.489   3.252   0.604  0.6368 -1.0649 -2.6318
 1140ETH     H3 4080   3.662   3.055   0.659  0.9452  0.3418  1.3222
 1140ETH     H4 4081   3.557   3.109   0.794  1.2651 -1.2459  0.2558
 1140ETH     H5 4082   3.495   2.903   0.601  1.3738  1.6592 -0.4635
 1141ETH      C 4083   3.360   2.216   2.622 -0.6209  0.2976 -0.1194
 1141ETH     C1 4084   3.281   2.099   2.651 -0.0371 -0.2336 -0.3073
 1141ETH      O 4085   3.259   2.081   2.798 -0.2201  0.4373  0.3728
 1141ETH      H 4086   3.304   2.308   2.641  0.8675  1.3623 -0.6429
 1141ETH     H1 4087   3.376   2.199   2.515 -1.9079 -0.1123 -0.2669
 1141ETH     H2 4088   3.455   2.231   2.674 -0.1627  1.5289 -1.2506
 1141ETH     H3 4089   3.184   2.095   2.600 -0.5812  0.9445  0.5752
 1141ETH     H4 4090   3.341   2.014   2.617 -0.7094 -0.3838 -1.1634
 1141ETH     H5 4091   3.194   2.009   2.808 -0.1908  0.3432 -0.1264
 1142ETH      C 4092   3.971   3.420   0.320  0.2886  0.4981 -0.6333
 1142ETH     C1 4093   3.896   3.481   0.445 -0.3746  0.2080 -0.3064
 1142ETH      O 4094   3.884   3.387   0.562 -0.4109  0.8548 -0.2955
 1142ETH      H 4095   3.964   3.495   0.241 -2.1839  1.4026  0.3561
 1142ETH     H1 4096   3.924   3.327   0.285  0.1886 -0.3617  1.6193
 1142ETH     H2 4097   4.074   3.390   0.340  0.1165  0.6247  0.4972
 1142ETH     H3 4098   3.959   3.563   0.482 -0.4825 -0.2335  0.9111
 1142ETH     H4 4099   3.800   3.525   0.416  0.0485  1.3482 -0.0139
 1142ETH     H5 4100   3.962   3.329   0.567 -0.7317  0.4605  0.2991
 1143ETH      C 4101   1.176   0.271   4.147 -0.4161  0.7591  0.4077
 1143ETH     C1 4102   1.088   0.357   4.062  0.2566 -0.5480 -0.6317
 1143ETH      O 4103   0.980   0.418   4.143  0.3942 -0.0887  0.2091
 1143ETH      H 4104   1.231   0.338   4.214 -1.7514  0.2955  2.0360
 1143ETH     H1 4105   1.241   0.203   4.091 -1.0714  0.2298  0.2692
 1143ETH     H2 4106   1.115   0.206   4.211  0.9075 -1.2445 -0.2701
 1143ETH     H3 4107   1.136   0.445   4.019 -3.6033  1.9481 -0.2508
 1143ETH     H4 4108   1.056   0.291   3.980 -1.5824 -1.6125  0.8426
 1143ETH     H5 4109   0.951   0.496   4.094  1.7345 -1.7228 -3.5626
 1144ETH      C 4110   2.660   0.408   0.370  0.0643 -0.2208  0.0487
 1144ETH     C1 4111   2.709   0.309   0.478  0.7513 -0.5982 -0.0677
 1144ETH      O 4112   2.624   0.198   0.474 -0.3586  0.3664  0.1527
 1144ETH      H 4113   2.707   0.505   0.389  0.2112 -0.7029  2.3965
 1144ETH     H1 4114   2.552   0.418   0.385 -0.0312 -1.9129  0.6988
 1144ETH     H2 4115   2.674   0.371   0.267 -0.2063 -0.7943  0.2158
 1144ETH     H3 4116   2.808   0.283   0.439  2.0289  1.8493  1.3085
 1144ETH     H4 4117   2.696   0.362   0.573 -1.4678 -1.1765  0.0073
 1144ETH     H5 4118   2.634   0.157   0.387  0.1762  0.1737  0.3040
 1145ETH      C 4119   0.596   0.219   1.477 -0.5728 -0.6991  0.0747
 1145ETH     C1 4120   0.521   0.094   1.429  0.1634  0.3644 -0.3393
 1145ETH      O 4121   0.547   0.066   1.286  0.4282  0.0525 -0.0617
 1145ETH      H 4122   0.703   0.202   1.464 -0.9066 -2.0802 -1.1254
 1145ETH     H1 4123   0.568   0.244   1.580 -1.4247  0.3626 -0.3905
 1145ETH     H2 4124   0.560   0.310   1.427  0.1871  0.5178  1.6433
 1145ETH     H3 4125   0.540  -0.002   1.478  0.0774  0.7175  0.3921
 1145ETH     H4 4126   0.415   0.118   1.441  0.1128  0.0133 -0.0990
 1145ETH     H5 4127   0.511   0.141   1.237  1.2014 -1.1495 -2.6174
 1146ETH      C 4128   1.448   2.341   1.319 -0.7602 -0.7423 -0.3710
 1146ETH     C1 4129   1.429   2.474   1.394 -0.4852  0.0506 -0.9519
 1146ETH      O 4130   1.490   2.586   1.323  0.1005  0.7038 -0.0116
 1146ETH      H 4131   1.370   2.323   1.244  0.0839 -3.7785 -0.6782
 1146ETH     H1 4132   1.431   2.260   1.392  1.1864 -1.2353 -0.4107
 1146ETH     H2 4133   1.549   2.323   1.280  0.3059 -1.4836  2.4362
 1146ETH     H3 4134   1.323   2.491   1.417 -0.5484 -1.6177  0.1411
 1146ETH     H4 4135   1.486   2.463   1.487 -1.5625 -2.0618 -0.4936
 1146ETH     H5 4136   1.421   2.654   1.307 -1.1009 -0.6683 -0.9087
 1147ETH      C 4137   1.518   0.367   3.953 -0.0663  0.5191  0.2903
 1147ETH     C1 4138   1.417   0.316   3.849 -0.5307  0.0096 -0.8047
 1147ETH      O 4139   1.437   0.173   3.845  0.3682  0.0855  0.2453
 1147ETH      H 4140   1.459   0.394   4.041  0.0557 -1.4244  1.0197
 1147ETH     H1 4141   1.570   0.454   3.911 -2.7533  1.3595 -1.4894
 1147ETH     H2 4142   1.600   0.296   3.972 -0.6936 -0.6496 -1.1121
 1147ETH     H3 4143   1.315   0.336   3.882 -1.6098 -2.1650 -2.5480
 1147ETH     H4 4144   1.444   0.357   3.751 -2.6027  0.0549 -1.4063
 1147ETH     H5 4145   1.528   0.158   3.812  0.4441  0.5146  0.2568
 1148ETH      C 4146   3.248   3.835   3.402  0.5034  0.9562 -0.0924
 1148ETH     C1 4147   3.341   3.716   3.433 -0.4589  0.2437  0.1091
 1148ETH      O 4148   3.268   3.610   3.491 -0.1219 -0.3697  0.4633
 1148ETH      H 4149   3.292   3.925   3.356  1.9501 -0.9555 -2.7598
 1148ETH     H1 4150   3.195   3.869   3.491 -0.7879 -0.5009 -0.2661
 1148ETH     H2 4151   3.171   3.810   3.328  0.1380  3.1086 -0.5078
 1148ETH     H3 4152   3.370   3.679   3.334 -0.1349  0.1947  0.2209
 1148ETH     H4 4153   3.432   3.740   3.489 -1.0096  1.2381  0.6078
 1148ETH     H5 4154   3.306   3.601   3.581 -0.1035  2.5658  0.8349
 1149ETH      C 4155   1.269   3.264   1.759 -0.1907  0.1697  0.3657
 1149ETH     C1 4156   1.177   3.337   1.856 -0.0084 -0.4316  0.1267
 1149ETH      O 4157   1.240   3.452   1.919  0.0147 -0.2062 -0.7311
 1149ETH      H 4158   1.363   3.234   1.806 -1.2247 -1.0704  1.7471
 1149ETH     H1 4159   1.304   3.322   1.673  0.1031 -1.4134 -0.6181
 1149ETH     H2 4160   1.230   3.171   1.717  0.9550  0.6298 -1.8669
 1149ETH     H3 4161   1.087   3.373   1.806 -1.6582 -1.0992  2.4381
 1149ETH     H4 4162   1.134   3.266   1.928  0.9944  0.3376  1.5571
 1149ETH     H5 4163   1.230   3.522   1.852 -2.4183  0.5286  0.2815
 1150ETH      C 4164   2.906   1.991   4.023  0.0545  0.0991 -0.5391
 1150ETH     C1 4165   3.036   2.051   4.062 -0.6007 -0.8906 -0.5653
 1150ETH      O 4166   3.061   2.152   3.955 -0.0566 -0.1432 -0.1600
 1150ETH      H 4167   2.903   1.944   3.924  0.4825  0.1999 -0.5998
 1150ETH     H1 4168   2.826   2.065   4.032 -0.5557 -0.6420  0.4203
 1150ETH     H2 4169   2.888   1.908   4.093 -0.2766  0.6874  0.0864
 1150ETH     H3 4170   3.020   2.106   4.155 -0.0947 -1.7953  0.0596
 1150ETH     H4 4171   3.132   1.998   4.067  0.3706  0.9492  3.3671
 1150ETH     H5 4172   3.034   2.112   3.871  0.6811  1.0463 -0.9924
 1151ETH      C 4173   0.940   3.837   3.284  0.4039  1.0510  0.3903
 1151ETH     C1 4174   1.042   3.952   3.289  0.3592  0.0718 -0.0892
 1151ETH      O 4175   1.026   4.045   3.174 -0.5469 -0.5708 -0.0286
 1151ETH      H 4176   0.942   3.789   3.382  1.5839 -0.8651 -0.5191
 1151ETH     H1 4177   0.967   3.763   3.208 -1.8258  0.4943  0.0612
 1151ETH     H2 4178   0.841   3.878   3.259 -0.8865 -1.6334  0.7800
 1151ETH     H3 4179   1.022   4.010   3.380  0.7975  0.5803 -0.3093
 1151ETH     H4 4180   1.146   3.921   3.299  0.1847  0.1290  2.8147
 1151ETH     H5 4181   1.094   4.114   3.177  0.2661 -1.3671  0.6250
 1152ETH      C 4182   1.777   1.228   0.167 -0.1485 -0.1476  0.0319
 1152ETH     C1 4183   1.818   1.255   0.313 -0.5815 -0.1768 -0.1837
 1152ETH      O 4184   1.864   1.393   0.322  0.6401  0.3239 -0.3753
 1152ETH      H 4185   1.860   1.247   0.098 -0.5664  1.2990 -0.1025
 1152ETH     H1 4186   1.696   1.294   0.132 -1.2031 -1.0998  0.6091
 1152ETH     H2 4187   1.739   1.125   0.163 -0.8591 -0.0502  2.5469
 1152ETH     H3 4188   1.727   1.250   0.373 -0.4733  1.0102  0.1084
 1152ETH     H4 4189   1.890   1.182   0.352 -0.6765  1.6171  3.9054
 1152ETH     H5 4190   1.831   1.415   0.411 -1.8320 -0.5917 -0.9896
 1153ETH      C 4191   0.842   3.650   2.752 -0.2533 -0.3751  0.6296
 1153ETH     C1 4192   0.690   3.649   2.716  0.5988 -0.0221  0.2559
 1153ETH      O 4193   0.667   3.549   2.615  0.5293  0.6985 -0.3686
 1153ETH      H 4194   0.868   3.722   2.830  1.7993 -0.2483 -0.0959
 1153ETH     H1 4195   0.906   3.679   2.668 -1.0712  0.0140  0.1290
 1153ETH     H2 4196   0.885   3.554   2.785  1.4444 -0.2294 -0.9592
 1153ETH     H3 4197   0.641   3.638   2.813  0.4417  1.6903  0.4098
 1153ETH     H4 4198   0.665   3.750   2.679 -2.1397 -0.4825  0.6536
 1153ETH     H5 4199   0.573   3.526   2.618  0.6078  0.4162  1.5008
 1154ETH      C 4200   3.898   0.643   1.360  0.0406 -0.9593 -0.1831
 1154ETH     C1 4201   4.002   0.707   1.278  0.1724 -0.2319  0.3421
 1154ETH      O 4202   3.977   0.676   1.142 -0.2242  0.7808  0.2562
 1154ETH      H 4203   3.923   0.636   1.467 -1.8486 -0.9366  0.3107
 1154ETH     H1 4204   3.859   0.548   1.321  0.4800 -0.4341 -1.9717
 1154ETH     H2 4205   3.813   0.712   1.353  0.1343 -0.5108  2.1404
 1154ETH     H3 4206   3.999   0.815   1.291 -2.4323 -0.2828  0.7348
 1154ETH     H4 4207   4.092   0.653   1.310 -0.2604 -0.7978  0.6315
 1154ETH     H5 4208   3.891   0.713   1.118  0.8192  2.8438 -0.6099
 1155ETH      C 4209   2.444   1.681   4.177 -0.3923  0.1084  0.4086
 1155ETH     C1 4210   2.451   1.832   4.195 -0.7107 -0.4759 -1.1236
 1155ETH      O 4211   2.591   1.869   4.184 -0.3139  0.0974 -0.5388
 1155ETH      H 4212   2.352   1.631   4.209  0.9447 -2.8066  0.0849
 1155ETH     H1 4213   2.530   1.624   4.216 -1.2121 -0.1109  1.9756
 1155ETH     H2 4214   2.454   1.660   4.070 -0.0446  0.6729  0.3276
 1155ETH     H3 4215   2.392   1.877   4.114  0.6328  1.9550 -0.8544
 1155ETH     H4 4216   2.411   1.864   4.291 -0.5853  1.0111 -1.5368
 1155ETH     H5 4217   2.626   1.830   4.102  0.4340 -2.0443  0.6964
 1156ETH      C 4218   2.723   0.789   0.324 -0.6657 -0.3878  0.0228
 1156ETH     C1 4219   2.666   0.875   0.446 -0.0556  0.1414 -0.6247
 1156ETH      O 4220   2.738   0.997   0.437 -0.0054 -0.4897  0.3378
 1156ETH      H 4221   2.713   0.853   0.235  1.3233  0.1510  0.1469
 1156ETH     H1 4222   2.662   0.700   0.304 -1.7979  0.3637 -0.0163
 1156ETH     H2 4223   2.824   0.751   0.342 -0.8648  0.0648  2.4258
 1156ETH     H3 4224   2.557   0.884   0.441 -0.0836 -0.6433 -1.5946
 1156ETH     H4 4225   2.690   0.821   0.538 -1.1719  1.7984  0.7217
 1156ETH     H5 4226   2.754   1.029   0.347  0.5150  1.1474  0.9563
 1157ETH      C 4227   3.317   0.276   1.885 -0.5496 -0.3739 -0.1148
 1157ETH     C1 4228   3.272   0.170   1.784 -0.6928  0.1014  0.2781
 1157ETH      O 4229   3.261   0.040   1.843  0.5800 -0.3395 -0.2829
 1157ETH      H 4230   3.426   0.287   1.886 -0.6524  0.7360  0.6420
 1157ETH     H1 4231   3.266   0.256   1.981  0.6732 -1.3485  0.3449
 1157ETH     H2 4232   3.277   0.372   1.848  0.3088 -0.2674 -0.7943
 1157ETH     H3 4233   3.170   0.202   1.759 -0.2457  0.6845 -0.8639
 1157ETH     H4 4234   3.322   0.171   1.686 -3.3979 -0.8347 -1.2041
 1157ETH     H5 4235   3.201   0.039   1.919  0.4020 -2.9144 -0.3444
 1158ETH      C 4236   0.319   1.035   3.470 -0.5911 -0.8826  0.4055
 1158ETH     C1 4237   0.231   0.968   3.579 -0.0801 -1.0049 -0.3587
 1158ETH      O 4238   0.215   0.829   3.546  0.0544  0.1658 -0.2886
 1158ETH      H 4239   0.416   0.985   3.454  0.8500  1.4349  1.4011
 1158ETH     H1 4240   0.336   1.142   3.485 -3.9756 -0.1407 -0.3089
 1158ETH     H2 4241   0.276   1.029   3.369  1.4772  2.2424 -0.8559
 1158ETH     H3 4242   0.278   0.983   3.677 -0.7277 -2.1095  0.1345
 1158ETH     H4 4243   0.136   1.022   3.591  0.2707 -0.5683  0.6285
 1158ETH     H5 4244   0.172   0.825   3.459  0.7230 -1.4679 -0.5919
 1159ETH      C 4245   2.195   3.267   0.337  0.2821  0.0661  0.1228
 1159ETH     C1 4246   2.142   3.386   0.410  0.6360 -0.1447  0.1276
 1159ETH      O 4247   2.015   3.347   0.472  0.1444  0.3028  0.3777
 1159ETH      H 4248   2.236   3.189   0.402  0.9603 -0.2087 -0.6213
 1159ETH     H1 4249   2.271   3.287   0.261  0.7345 -1.5367  0.1183
 1159ETH     H2 4250   2.105   3.228   0.286 -1.1570  4.1552 -0.8835
 1159ETH     H3 4251   2.215   3.410   0.488  0.8104 -0.0051 -0.0785
 1159ETH     H4 4252   2.137   3.477   0.350 -0.4260 -1.4614 -1.8822
 1159ETH     H5 4253   2.011   3.256   0.507  1.7612  0.3664  0.8193
 1160ETH      C 4254   1.760   3.635   0.941 -0.1977  1.1558 -0.0151
 1160ETH     C1 4255   1.845   3.691   1.052  0.5585 -0.2930  0.0013
 1160ETH      O 4256   1.963   3.762   1.011  0.5120  0.0684  0.1945
 1160ETH      H 4257   1.673   3.585   0.984  1.2543 -0.6547  0.9566
 1160ETH     H1 4258   1.810   3.559   0.879 -0.1593  1.1561  0.0153
 1160ETH     H2 4259   1.730   3.714   0.870 -1.3429  0.9919  0.2729
 1160ETH     H3 4260   1.775   3.753   1.109  0.2805  0.0203 -0.6771
 1160ETH     H4 4261   1.880   3.617   1.125  0.6623  2.5392  3.0684
 1160ETH     H5 4262   2.005   3.784   1.095  0.2417 -0.2830  0.4231
 1161ETH      C 4263   0.500   0.644   3.504  0.5727  0.0457  0.3395
 1161ETH     C1 4264   0.538   0.587   3.639  0.0290  0.5236 -0.5202
 1161ETH      O 4265   0.443   0.489   3.675  0.3303 -0.2095  0.7676
 1161ETH      H 4266   0.539   0.747   3.500 -4.6659  2.3331 -0.4092
 1161ETH     H1 4267   0.391   0.639   3.489  0.4284  2.7480 -0.1118
 1161ETH     H2 4268   0.538   0.591   3.417 -2.5832 -0.6440 -0.7640
 1161ETH     H3 4269   0.639   0.548   3.649 -0.7771 -1.3196  0.9992
 1161ETH     H4 4270   0.531   0.672   3.708 -0.1231  1.9855 -2.2652
 1161ETH     H5 4271   0.353   0.527   3.677 -0.0096 -1.0182  1.5048
 1162ETH      C 4272   4.170   2.710   1.170 -0.8626  0.0507 -0.9031
 1162ETH     C1 4273   4.119   2.818   1.074  0.1680 -0.3931  0.4041
 1162ETH      O 4274   4.086   2.749   0.953 -0.2322 -0.0665  0.2994
 1162ETH      H 4275   4.189   2.759   1.266  5.9171 -0.7875 -1.3353
 1162ETH     H1 4276   4.256   2.651   1.135  0.6594  1.6578 -0.0407
 1162ETH     H2 4277   4.091   2.638   1.193  0.0221 -0.6771 -0.0556
 1162ETH     H3 4278   4.033   2.875   1.112  0.8281  1.8810 -1.3384
 1162ETH     H4 4279   4.196   2.893   1.054  0.6960 -1.5491 -2.4353
 1162ETH     H5 4280   4.162   2.691   0.933 -1.4411 -1.0159 -1.8503
 1163ETH      C 4281   0.917   0.052   0.660 -0.0975  0.0111  0.2879
 1163ETH     C1 4282   0.920   0.103   0.797 -1.0070 -0.2409 -0.5178
 1163ETH      O 4283   0.914   0.242   0.811 -0.3279  0.0985 -0.1047
 1163ETH      H 4284   0.924  -0.057   0.644 -2.0304  0.2092 -2.7674
 1163ETH     H1 4285   0.996   0.100   0.602 -0.9791 -0.3347 -1.2671
 1163ETH     H2 4286   0.823   0.084   0.613 -0.6205  0.0201  1.3096
 1163ETH     H3 4287   0.835   0.064   0.854 -0.7336  0.8002  0.6390
 1163ETH     H4 4288   1.008   0.059   0.846 -0.0146  0.7326 -1.3612
 1163ETH     H5 4289   0.853   0.275   0.743 -1.0778 -1.2354 -0.1114
 1164ETH      C 4290   0.570   1.589   1.485 -0.1130 -0.4914 -0.1202
 1164ETH     C1 4291   0.579   1.698   1.596  0.4779  0.2213  0.5171
 1164ETH      O 4292   0.656   1.651   1.702 -0.0671  0.1656  0.3503
 1164ETH      H 4293   0.509   1.625   1.401  3.6950  0.6569 -2.6525
 1164ETH     H1 4294   0.527   1.500   1.532 -0.7445 -1.0511 -1.7036
 1164ETH     H2 4295   0.670   1.583   1.440  1.1281  0.4001  2.3353
 1164ETH     H3 4296   0.620   1.792   1.557  0.7352  1.3485  3.2857
 1164ETH     H4 4297   0.475   1.721   1.620  0.0871 -0.4400 -0.4871
 1164ETH     H5 4298   0.600   1.581   1.739 -0.3403  0.0018 -0.3496
 1165ETH      C 4299   2.378   2.113   1.616 -0.6160 -0.2281 -0.0731
 1165ETH     C1 4300   2.485   2.017   1.672  0.3509  0.1448 -0.4646
 1165ETH      O 4301   2.609   2.091   1.660  0.2354 -0.6638 -0.1440
 1165ETH      H 4302   2.411   2.214   1.641  0.8627 -1.4038  3.1796
 1165ETH     H1 4303   2.280   2.085   1.657  0.1544 -2.7343  0.2605
 1165ETH     H2 4304   2.372   2.094   1.508  0.0248  1.6795 -0.4789
 1165ETH     H3 4305   2.451   1.992   1.773 -0.8623  2.1435 -0.3141
 1165ETH     H4 4306   2.486   1.926   1.611 -2.1912 -0.0887 -0.2507
 1165ETH     H5 4307   2.682   2.030   1.677  0.8119  0.7323  3.2331
 1166ETH      C 4308   2.206   2.371   2.944 -0.4480 -0.0713  0.0826
 1166ETH     C1 4309   2.156   2.284   3.064 -0.5826  0.6191  0.2838
 1166ETH      O 4310   2.016   2.308   3.072  0.1999 -0.4043 -0.0084
 1166ETH      H 4311   2.188   2.327   2.845  0.3971  0.8369 -0.4925
 1166ETH     H1 4312   2.315   2.375   2.954 -0.5267 -0.1615  1.0329
 1166ETH     H2 4313   2.178   2.477   2.953  1.9476  0.6206  0.1224
 1166ETH     H3 4314   2.185   2.180   3.044  0.9835  1.1842 -0.5537
 1166ETH     H4 4315   2.212   2.324   3.149  1.0521  1.8914 -1.3241
 1166ETH     H5 4316   1.998   2.401   3.092  0.3329 -0.0461 -1.4512
 1167ETH      C 4317   2.027   2.775   2.202 -0.7732  0.3117 -0.7635
 1167ETH     C1 4318   1.927   2.745   2.092 -0.5170 -0.2322 -1.3052
 1167ETH      O 4319   1.860   2.858   2.046  0.1696  0.0177  0.5571
 1167ETH      H 4320   2.104   2.847   2.171  0.2792 -2.1093 -4.4130
 1167ETH     H1 4321   2.071   2.688   2.252 -1.7867 -0.6630 -1.5145
 1167ETH     H2 4322   1.970   2.836   2.273 -1.9475  0.3240 -1.6863
 1167ETH     H3 4323   1.990   2.704   2.012  2.0345 -0.8489  0.8711
 1167ETH     H4 4324   1.859   2.668   2.129  4.0845 -2.7292  3.2357
 1167ETH     H5 4325   1.853   2.920   2.120  0.9295 -1.2232  1.7223
 1168ETH      C 4326   0.230   0.420   1.427  0.7659  0.7923 -0.2273
 1168ETH     C1 4327   0.230   0.510   1.551  0.5008 -0.0688 -0.1783
 1168ETH      O 4328   0.101   0.578   1.554  0.1748 -0.4993 -0.0741
 1168ETH      H 4329   0.221   0.481   1.336  3.3202 -1.5176 -2.1668
 1168ETH     H1 4330   0.149   0.346   1.420  1.8019 -0.4615  0.7420
 1168ETH     H2 4331   0.325   0.368   1.413  0.6388  1.0290 -2.4574
 1168ETH     H3 4332   0.232   0.460   1.648 -1.8329 -0.5091 -0.2902
 1168ETH     H4 4333   0.316   0.578   1.557  0.6284 -0.1707 -0.7860
 1168ETH     H5 4334   0.033   0.526   1.601  0.5318 -0.8783  0.0236
 1169ETH      C 4335   2.294   0.008   3.578 -1.0725 -0.1841 -0.3421
 1169ETH     C1 4336   2.352   0.150   3.594  0.0818 -0.7504  0.7665
 1169ETH      O 4337   2.417   0.175   3.469  0.1697  0.0169 -0.0420
 1169ETH      H 4338   2.387  -0.050   3.586  0.1285  1.7855  0.6544
 1169ETH     H1 4339   2.243   0.002   3.481 -1.2985  0.3420 -0.2572
 1169ETH     H2 4340   2.229  -0.019   3.662 -2.2867  1.5868 -0.6665
 1169ETH     H3 4341   2.274   0.224   3.616  1.0970  0.9559 -1.0007
 1169ETH     H4 4342   2.419   0.158   3.680  0.8427 -0.3579  0.1525
 1169ETH     H5 4343   2.495   0.118   3.456  0.1675  0.3842 -1.9280
 1170ETH      C 4344   0.246   1.670   1.413  0.0649  0.0832 -0.3041
 1170ETH     C1 4345   0.269   1.808   1.472  0.5723  0.6084  0.0920
 1170ETH      O 4346   0.199   1.904   1.390  0.3504 -0.0517  0.1238
 1170ETH      H 4347   0.146   1.664   1.368 -0.7048  1.2558  1.1646
 1170ETH     H1 4348   0.263   1.591   1.488 -1.1700  0.6097  0.5630
 1170ETH     H2 4349   0.317   1.656   1.330 -1.0607  0.2937 -1.3264
 1170ETH     H3 4350   0.219   1.814   1.569  2.1990 -0.7984  1.0794
 1170ETH     H4 4351   0.373   1.836   1.491  0.6471  2.0481 -2.1177
 1170ETH     H5 4352   0.201   1.989   1.437  3.1112 -0.0993  0.2570
 1171ETH      C 4353   0.314   1.722   1.927  0.3475 -0.1087  0.7135
 1171ETH     C1 4354   0.202   1.617   1.900 -0.0711 -0.3319  0.4444
 1171ETH      O 4355   0.221   1.546   1.773 -0.2608  0.2090 -0.0547
 1171ETH      H 4356   0.319   1.779   1.833  1.6414 -0.8123  0.3295
 1171ETH     H1 4357   0.411   1.673   1.936 -0.3172 -1.7149 -0.3792
 1171ETH     H2 4358   0.287   1.786   2.012  0.5367  1.2053 -0.1801
 1171ETH     H3 4359   0.201   1.546   1.984  0.1266 -1.3701 -0.4134
 1171ETH     H4 4360   0.107   1.672   1.900  0.9806  1.6551 -1.8022
 1171ETH     H5 4361   0.296   1.487   1.792  0.2915  1.2128  0.9766
 1172ETH      C 4362   3.852   3.137   2.885 -0.0616 -0.5891 -0.0266
 1172ETH     C1 4363   3.995   3.177   2.872  0.0982  0.1037 -0.1407
 1172ETH      O 4364   4.016   3.263   2.989 -0.0818 -0.0593 -0.3668
 1172ETH      H 4365   3.820   3.111   2.783  1.8852 -1.6583 -0.4133
 1172ETH     H1 4366   3.786   3.212   2.929  0.5376 -0.9719  1.6017
 1172ETH     H2 4367   3.842   3.051   2.953 -0.4909 -1.2109 -0.8600
 1172ETH     H3 4368   4.056   3.086   2.874 -1.0201 -0.6604  0.7415
 1172ETH     H4 4369   4.023   3.231   2.781 -1.7848  0.8339 -0.3428
 1172ETH     H5 4370   4.025   3.347   2.942 -0.6291 -1.2592 -2.7680
 1173ETH      C 4371   2.036   2.600   2.655  0.2873 -0.3416 -0.7241
 1173ETH     C1 4372   2.137   2.713   2.656  0.4927  0.1837  0.5284
 1173ETH      O 4373   2.097   2.819   2.741 -0.0084  0.4268  0.1402
 1173ETH      H 4374   2.076   2.512   2.603  3.1444  0.7888 -0.6052
 1173ETH     H1 4375   1.948   2.635   2.601 -0.3443  0.9123  1.0356
 1173ETH     H2 4376   2.004   2.581   2.758  3.0255 -0.4620  0.1799
 1173ETH     H3 4377   2.238   2.677   2.680  0.2575 -0.2518  0.8597
 1173ETH     H4 4378   2.135   2.761   2.557 -1.4277  0.4871  0.6803
 1173ETH     H5 4379   2.026   2.871   2.700 -0.3653 -0.1034  0.0785
 1174ETH      C 4380   2.452   1.938   0.726  0.3551  1.0717 -0.0286
 1174ETH     C1 4381   2.402   2.083   0.716  0.0313 -0.0721  0.7768
 1174ETH      O 4382   2.483   2.169   0.800  0.0231 -0.2175  0.3113
 1174ETH      H 4383   2.537   1.910   0.662 -0.9185 -2.0715 -0.5477
 1174ETH     H1 4384   2.375   1.863   0.701  2.3156 -0.9576 -0.3098
 1174ETH     H2 4385   2.477   1.912   0.829  0.1871  0.8846 -0.0321
 1174ETH     H3 4386   2.422   2.111   0.612  3.3586 -0.9935  1.0504
 1174ETH     H4 4387   2.300   2.108   0.748  0.2448  0.0153  1.3943
 1174ETH     H5 4388   2.416   2.224   0.845 -2.0246 -2.0598 -0.2951
 1175ETH      C 4389   3.000   0.468   0.382 -0.3594 -0.5940  0.3654
 1175ETH     C1 4390   3.133   0.387   0.405  0.2731  0.5531  0.0818
 1175ETH      O 4391   3.204   0.360   0.281  0.1005  0.2197 -0.0858
 1175ETH      H 4392   2.948   0.489   0.477  0.0252  1.5524  0.1579
 1175ETH     H1 4393   2.924   0.413   0.325 -1.1406  0.4021  0.4047
 1175ETH     H2 4394   3.026   0.563   0.333 -2.2601 -0.7926 -1.1806
 1175ETH     H3 4395   3.194   0.444   0.477 -1.2058  2.9305 -0.4422
 1175ETH     H4 4396   3.091   0.292   0.438 -1.0202  0.9852 -0.2825
 1175ETH     H5 4397   3.135   0.341   0.216 -0.9169 -0.4691  1.1336
 1176ETH      C 4398   1.660   2.281   2.831  0.3380  0.5153  0.1245
 1176ETH     C1 4399   1.752   2.387   2.782 -0.5406  0.4987 -0.2547
 1176ETH      O 4400   1.672   2.470   2.692  0.3112 -0.1775  0.0330
 1176ETH      H 4401   1.588   2.237   2.762 -0.1216 -0.6026  1.2933
 1176ETH     H1 4402   1.586   2.313   2.906 -1.6491  0.2022 -1.6059
 1176ETH     H2 4403   1.715   2.196   2.872 -0.0997 -0.3197 -0.9878
 1176ETH     H3 4404   1.785   2.449   2.866  1.7060 -0.0152 -0.6998
 1176ETH     H4 4405   1.830   2.336   2.725 -0.1644 -0.5971  1.1872
 1176ETH     H5 4406   1.603   2.510   2.748  0.5133 -0.0137  0.1687
 1177ETH      C 4407   1.548   0.629   2.000 -0.2119 -1.2279 -0.4594
 1177ETH     C1 4408   1.600   0.695   1.866  0.0785 -0.9953 -0.3108
 1177ETH      O 4409   1.535   0.638   1.750  0.6756 -0.0583  0.7461
 1177ETH      H 4410   1.439   0.630   2.004 -0.4584  4.9533  1.7408
 1177ETH     H1 4411   1.585   0.691   2.083 -1.8302 -0.1030 -0.5322
 1177ETH     H2 4412   1.577   0.525   2.016 -1.0087 -1.3897  0.0054
 1177ETH     H3 4413   1.577   0.803   1.864  2.3535 -0.4758 -2.5575
 1177ETH     H4 4414   1.709   0.688   1.857  0.4348  0.9254  1.5304
 1177ETH     H5 4415   1.590   0.670   1.677 -1.0394  0.2888 -0.4462
 1178ETH      C 4416   2.385   1.697   2.296 -0.3377 -0.4636 -0.1831
 1178ETH     C1 4417   2.475   1.797   2.370  0.1726 -0.4437  0.0622
 1178ETH      O 4418   2.508   1.738   2.494  0.3213 -0.1136 -0.2808
 1178ETH      H 4419   2.375   1.724   2.191 -2.9707  1.7391  0.5338
 1178ETH     H1 4420   2.292   1.696   2.354  0.2714 -0.2695  0.8255
 1178ETH     H2 4421   2.436   1.600   2.307  1.0030  0.2488  0.1295
 1178ETH     H3 4422   2.565   1.820   2.312  0.1672  1.6793  0.8186
 1178ETH     H4 4423   2.426   1.895   2.379  0.6455 -0.0161 -1.6482
 1178ETH     H5 4424   2.467   1.791   2.565  0.9431  1.9295 -1.3525
 1179ETH      C 4425   1.585   3.835   0.184  1.3645  0.0916 -0.2275
 1179ETH     C1 4426   1.444   3.803   0.232  0.1048  0.0857 -0.0823
 1179ETH      O 4427   1.446   3.775   0.374 -0.4606  0.4481 -0.6823
 1179ETH      H 4428   1.641   3.741   0.192  1.4686  0.2439  0.9195
 1179ETH     H1 4429   1.638   3.916   0.235 -0.6546  0.6624  1.0989
 1179ETH     H2 4430   1.585   3.865   0.078  0.5012  2.2643  0.3265
 1179ETH     H3 4431   1.373   3.882   0.207 -0.8503 -0.6574  0.2063
 1179ETH     H4 4432   1.404   3.716   0.178 -1.7835 -0.0898  1.4906
 1179ETH     H5 4433   1.432   3.679   0.382  0.7573  0.0979 -2.1932
 1180ETH      C 4434   2.857   2.623   2.543  1.3941 -0.1315 -0.3399
 1180ETH     C1 4435   2.891   2.478   2.536  0.1046  0.2019  0.2627
 1180ETH      O 4436   3.014   2.448   2.612 -0.1335 -0.0830  0.1798
 1180ETH      H 4437   2.848   2.654   2.647 -1.9826 -0.7039 -0.3548
 1180ETH     H1 4438   2.759   2.648   2.501  2.0004 -1.2114 -2.5772
 1180ETH     H2 4439   2.928   2.682   2.484  0.3393 -0.7977 -2.3644
 1180ETH     H3 4440   2.804   2.432   2.586 -1.0760  1.2450 -0.7544
 1180ETH     H4 4441   2.887   2.439   2.433 -0.9115 -3.2561  1.4563
 1180ETH     H5 4442   3.049   2.362   2.583 -1.1084  0.2586 -2.2632
 1181ETH      C 4443   2.958   0.282   2.899  0.3332 -0.1241  0.1465
 1181ETH     C1 4444   2.887   0.154   2.935 -0.1032 -0.5460  0.2138
 1181ETH      O 4445   2.923   0.123   3.067 -0.0216  0.0479 -0.2490
 1181ETH      H 4446   3.067   0.274   2.908  0.4634  0.3231 -0.8451
 1181ETH     H1 4447   2.923   0.362   2.965  1.5287  0.1935  0.4171
 1181ETH     H2 4448   2.934   0.306   2.794 -1.3579 -0.8700  0.3321
 1181ETH     H3 4449   2.781   0.177   2.945 -0.0710 -0.5255  0.4937
 1181ETH     H4 4450   2.895   0.073   2.861  0.3925  1.0184 -1.5361
 1181ETH     H5 4451   3.001   0.065   3.061 -0.3043 -0.6673  1.9937
 1182ETH      C 4452   2.606   0.501   3.353 -0.0334 -0.1306 -1.0435
 1182ETH     C1 4453   2.536   0.583   3.243  0.1346 -0.0735  0.0016
 1182ETH      O 4454   2.405   0.609   3.261 -0.5603 -0.1326  0.6869
 1182ETH      H 4455   2.601   0.558   3.447 -2.2644 -0.0601 -1.1521
 1182ETH     H1 4456   2.712   0.497   3.327  0.1089  3.0226 -1.3274
 1182ETH     H2 4457   2.573   0.397   3.365 -0.7960  0.3243  1.2523
 1182ETH     H3 4458   2.592   0.677   3.230 -0.1635  0.2028  0.6621
 1182ETH     H4 4459   2.540   0.537   3.144  0.4407  0.2613 -0.1459
 1182ETH     H5 4460   2.367   0.618   3.172  1.2460  0.8317 -0.0461
 1183ETH      C 4461   1.716   3.109   3.340 -0.5776 -0.5909  0.7978
 1183ETH     C1 4462   1.711   3.227   3.248 -0.2309  0.2544 -0.9113
 1183ETH      O 4463   1.636   3.184   3.135 -0.1492 -0.0578  0.0687
 1183ETH      H 4464   1.740   3.145   3.441 -0.1628  2.4840 -0.2860
 1183ETH     H1 4465   1.786   3.027   3.318  1.4056  1.3125 -0.3665
 1183ETH     H2 4466   1.620   3.056   3.343 -0.0619 -1.5222  1.4547
 1183ETH     H3 4467   1.663   3.311   3.300  0.6113  0.1154  0.1341
 1183ETH     H4 4468   1.815   3.257   3.229  0.3822 -1.4694 -0.4049
 1183ETH     H5 4469   1.549   3.153   3.164 -0.6488  2.2974  1.3953
 1184ETH      C 4470   2.410   0.471   0.669 -0.2765 -0.6585  0.2977
 1184ETH     C1 4471   2.464   0.437   0.811  0.1499  0.5158  0.1595
 1184ETH      O 4472   2.550   0.531   0.864 -0.9824  0.1393 -0.6170
 1184ETH      H 4473   2.338   0.397   0.633 -0.4483 -1.0131  1.3482
 1184ETH     H1 4474   2.477   0.480   0.582 -0.3792 -1.1960  0.1599
 1184ETH     H2 4475   2.357   0.566   0.678  0.6794 -0.1229  0.4077
 1184ETH     H3 4476   2.374   0.412   0.868 -1.4557  0.2859 -2.3057
 1184ETH     H4 4477   2.517   0.343   0.792 -1.8444 -0.1703 -2.7329
 1184ETH     H5 4478   2.637   0.488   0.873 -1.9435 -1.7054  0.4357
 1185ETH      C 4479   0.289   1.292   1.239  0.2927  0.3848  0.1831
 1185ETH     C1 4480   0.138   1.283   1.199 -0.5025 -0.0177  0.1305
 1185ETH      O 4481   0.056   1.388   1.237 -0.2892  0.0382 -0.0576
 1185ETH      H 4482   0.349   1.225   1.176 -1.7822 -0.5248 -0.9141
 1185ETH     H1 4483   0.310   1.252   1.339 -2.0101 -1.0632  0.1478
 1185ETH     H2 4484   0.329   1.394   1.225 -2.0296  1.5073  1.2636
 1185ETH     H3 4485   0.144   1.281   1.089 -1.4684 -0.2019  0.0794
 1185ETH     H4 4486   0.104   1.185   1.234  1.8557 -0.8289  0.3817
 1185ETH     H5 4487   0.067   1.461   1.174  1.3102  1.8679  2.1887
 1186ETH      C 4488   4.172   1.922   1.112 -0.0563  0.5030  0.9240
 1186ETH     C1 4489   4.022   1.933   1.133  0.0169  0.5279 -0.2076
 1186ETH      O 4490   3.986   1.863   1.249  0.3110 -0.0692 -0.5052
 1186ETH      H 4491   4.228   1.984   1.183  2.8623 -1.0870  0.1945
 1186ETH     H1 4492   4.191   1.960   1.012 -0.3816  0.4224  0.8321
 1186ETH     H2 4493   4.198   1.816   1.127 -4.2506 -0.9301 -0.5645
 1186ETH     H3 4494   3.993   2.039   1.135  1.0789  0.8217  0.5243
 1186ETH     H4 4495   3.965   1.888   1.051 -1.3457  1.6178  0.1041
 1186ETH     H5 4496   3.892   1.839   1.240 -0.1527  0.8627  1.2858
 1187ETH      C 4497   2.789   2.851   4.112  0.7319 -0.4822  0.3307
 1187ETH     C1 4498   2.918   2.865   4.196 -0.0323 -0.1973  0.1804
 1187ETH      O 4499   2.965   3.000   4.177 -0.6142 -0.2338  0.5935
 1187ETH      H 4500   2.734   2.756   4.116  0.1530 -0.2894 -1.7740
 1187ETH     H1 4501   2.805   2.867   4.004 -3.9314 -0.9034 -0.6622
 1187ETH     H2 4502   2.715   2.928   4.135 -1.3078 -1.4426 -2.4244
 1187ETH     H3 4503   2.895   2.841   4.301  0.6358 -0.1474  0.3428
 1187ETH     H4 4504   2.989   2.794   4.152  0.6471  0.6384 -0.1042
 1187ETH     H5 4505   2.887   3.055   4.156  0.0597  0.2041 -0.9006
 1188ETH      C 4506   2.173   0.980   1.496  0.3363  0.4254 -0.5804
 1188ETH     C1 4507   2.195   0.835   1.463 -0.0835  0.2258 -0.3242
 1188ETH      O 4508   2.334   0.816   1.440 -0.0650 -0.0928 -0.0632
 1188ETH      H 4509   2.082   1.014   1.445  0.1917 -0.5586 -1.0056
 1188ETH     H1 4510   2.259   1.043   1.470  0.0251  0.8891 -0.4962
 1188ETH     H2 4511   2.158   0.981   1.605 -1.4108 -1.6187 -0.7422
 1188ETH     H3 4512   2.165   0.754   1.531  1.7514 -1.3621 -1.3299
 1188ETH     H4 4513   2.147   0.822   1.366 -1.0028  0.3220  0.1091
 1188ETH     H5 4514   2.385   0.840   1.520  0.2932  0.2113 -0.3790
 1189ETH      C 4515   0.025   3.720   4.178 -0.0439  0.0751  0.3395
 1189ETH     C1 4516  -0.061   3.842   4.125  0.2304  0.5129  0.1961
 1189ETH      O 4517  -0.050   3.955   4.208  0.0380  0.6421  0.0548
 1189ETH      H 4518   0.118   3.748   4.229 -0.7983  1.4243  1.0410
 1189ETH     H1 4519   0.060   3.666   4.089  0.7614 -0.7725  1.1365
 1189ETH     H2 4520  -0.041   3.667   4.248 -1.0211 -0.2047 -0.7688
 1189ETH     H3 4521  -0.025   3.873   4.026 -0.5303 -0.0973 -0.2801
 1189ETH     H4 4522  -0.161   3.806   4.100  0.8660 -0.3991 -1.1969
 1189ETH     H5 4523  -0.096   4.027   4.161  0.5373  0.7523 -0.2714
 1190ETH      C 4524   2.514   0.144   2.767 -0.4263  0.0457 -0.2157
 1190ETH     C1 4525   2.432   0.022   2.811 -0.2705 -0.2645  0.3610
 1190ETH      O 4526   2.493  -0.087   2.733  0.5021 -0.0564 -0.1412
 1190ETH      H 4527   2.621   0.123   2.767  0.2778  3.0771 -0.6243
 1190ETH     H1 4528   2.496   0.220   2.844  2.6867 -0.8841  1.6101
 1190ETH     H2 4529   2.481   0.182   2.670 -0.4284  1.4594  0.3019
 1190ETH     H3 4530   2.442  -0.010   2.916 -1.1239 -0.1107  0.4962
 1190ETH     H4 4531   2.325   0.032   2.791 -0.7299 -1.9661  1.6843
 1190ETH     H5 4532   2.413  -0.136   2.709 -0.4137  0.8545  0.9059
 1191ETH      C 4533   0.580   3.952   2.881 -0.7716  0.4945 -0.6509
 1191ETH     C1 4534   0.686   3.941   2.985  0.4204 -0.0970  0.0656
 1191ETH      O 4535   0.728   4.069   3.034 -0.0137  0.3655 -0.0599
 1191ETH      H 4536   0.559   3.846   2.861  0.4629  0.5070 -2.2550
 1191ETH     H1 4537   0.615   4.003   2.790  1.8612  0.1379  0.1096
 1191ETH     H2 4538   0.482   3.989   2.914 -1.2011 -0.3861 -0.8981
 1191ETH     H3 4539   0.644   3.884   3.069  0.7151 -0.1620  0.1716
 1191ETH     H4 4540   0.775   3.887   2.951  0.0183 -0.8687  0.2339
 1191ETH     H5 4541   0.775   4.054   3.118  1.3081  2.1961 -0.4043
 1192ETH      C 4542   1.738   2.367   1.845 -0.3546 -0.2537 -0.2191
 1192ETH     C1 4543   1.715   2.517   1.869 -0.0802  0.4755 -0.5036
 1192ETH      O 4544   1.608   2.555   1.776  0.3664 -0.4293 -0.1066
 1192ETH      H 4545   1.782   2.360   1.745  1.6047  0.3457  0.5650
 1192ETH     H1 4546   1.648   2.305   1.855  0.2019 -1.0068  0.2449
 1192ETH     H2 4547   1.803   2.324   1.922  0.5715 -0.5484 -1.1418
 1192ETH     H3 4548   1.669   2.534   1.967 -3.5399 -0.1084 -1.8847
 1192ETH     H4 4549   1.809   2.571   1.851 -1.1099  1.7518 -2.3530
 1192ETH     H5 4550   1.529   2.506   1.804 -0.2481  1.8187  2.4858
 1193ETH      C 4551   1.588   4.127   3.536  0.2204 -0.4098 -0.0718
 1193ETH     C1 4552   1.622   4.201   3.414 -0.3376 -0.8120 -0.3785
 1193ETH      O 4553   1.625   4.341   3.441 -0.1306 -0.2839  0.0617
 1193ETH      H 4554   1.646   4.161   3.623 -1.5482  2.4910  0.1241
 1193ETH     H1 4555   1.597   4.021   3.509 -1.2640 -0.7089  0.4842
 1193ETH     H2 4556   1.487   4.138   3.579  0.6541  0.1688  0.8540
 1193ETH     H3 4557   1.714   4.161   3.369 -0.9156 -0.9800 -1.4348
 1193ETH     H4 4558   1.544   4.186   3.338  0.1440 -0.2913 -0.9775
 1193ETH     H5 4559   1.684   4.383   3.376  0.2702 -0.7973  0.0820
 1194ETH      C 4560   3.074   1.142   0.499  0.3131 -0.3366 -1.1020
 1194ETH     C1 4561   3.074   1.202   0.647  0.2284 -0.4121  0.7178
 1194ETH      O 4562   3.200   1.183   0.705 -0.5609  0.1259  0.2786
 1194ETH      H 4563   3.101   1.035   0.502 -1.5813 -0.8295  1.2115
 1194ETH     H1 4564   3.161   1.186   0.448  0.8505  2.5063  1.9879
 1194ETH     H2 4565   2.983   1.159   0.440  0.4335  0.0361 -1.1830
 1194ETH     H3 4566   3.061   1.309   0.628  1.4437 -0.6319 -1.7129
 1194ETH     H4 4567   2.994   1.153   0.702 -0.1797 -0.7828 -0.1960
 1194ETH     H5 4568   3.183   1.187   0.801  0.3551 -0.4629  0.4830
 1195ETH      C 4569   1.927   3.976   3.584  0.2159  0.1961 -0.0347
 1195ETH     C1 4570   2.069   3.941   3.619  0.2357  0.4671  0.6796
 1195ETH      O 4571   2.085   3.797   3.628  0.5225 -0.5096 -0.3127
 1195ETH      H 4572   1.891   3.923   3.494 -1.6645  0.1647  0.6941
 1195ETH     H1 4573   1.924   4.083   3.563 -0.3946  0.0785 -0.5804
 1195ETH     H2 4574   1.851   3.962   3.662 -0.6222  0.9648 -0.6850
 1195ETH     H3 4575   2.128   3.980   3.536 -0.9350 -0.5482 -0.6818
 1195ETH     H4 4576   2.103   3.994   3.709  1.0432  1.2987 -0.1039
 1195ETH     H5 4577   2.091   3.759   3.539  3.2977  0.2678 -0.5451
 1196ETH      C 4578   0.042   0.178   2.256 -0.2899  0.9047 -0.0325
 1196ETH     C1 4579  -0.096   0.165   2.183  0.8223 -1.1211 -0.0856
 1196ETH      O 4580  -0.194   0.109   2.274 -0.5489  0.5765 -0.5568
 1196ETH      H 4581   0.109   0.205   2.174  0.2601 -1.4372 -0.4286
 1196ETH     H1 4582   0.087   0.081   2.280  0.7440  1.1298 -0.9671
 1196ETH     H2 4583   0.042   0.243   2.344  0.4897  1.6370 -0.5595
 1196ETH     H3 4584  -0.139   0.259   2.145 -0.4737 -1.5164  0.3453
 1196ETH     H4 4585  -0.083   0.095   2.100 -0.8736  0.1773 -1.5161
 1196ETH     H5 4586  -0.265   0.082   2.212 -1.0371 -1.2268  0.7037
 1197ETH      C 4587   2.139   2.265   1.828 -0.1342  0.1477  0.5780
 1197ETH     C1 4588   2.077   2.309   1.698  0.2744 -0.0047  0.4298
 1197ETH      O 4589   2.155   2.416   1.638  0.1465  0.2139 -0.2302
 1197ETH      H 4590   2.131   2.346   1.902  1.6320  2.8794 -1.9795
 1197ETH     H1 4591   2.246   2.248   1.818 -0.1460  0.2454  0.2779
 1197ETH     H2 4592   2.091   2.170   1.853  0.5504 -0.3693 -0.0677
 1197ETH     H3 4593   2.094   2.223   1.633 -0.0750  0.4207 -0.2323
 1197ETH     H4 4594   1.972   2.334   1.716  0.7086  0.6345  2.3568
 1197ETH     H5 4595   2.081   2.477   1.620  1.1233  1.3255 -0.5964
 1198ETH      C 4596   0.635   0.694   0.377  0.3993 -0.6761  0.9388
 1198ETH     C1 4597   0.632   0.842   0.347  0.5628 -0.4755 -0.6208
 1198ETH      O 4598   0.505   0.885   0.302  0.3213 -0.0038 -0.1134
 1198ETH      H 4599   0.739   0.660   0.388  0.4201 -0.4391  1.5404
 1198ETH     H1 4600   0.590   0.643   0.291  0.1497  2.0104 -0.6323
 1198ETH     H2 4601   0.571   0.684   0.465 -1.2922 -0.1053 -0.1830
 1198ETH     H3 4602   0.652   0.899   0.438 -2.4025  0.1010 -0.2278
 1198ETH     H4 4603   0.711   0.868   0.275  1.6534  2.1961  1.3623
 1198ETH     H5 4604   0.505   0.980   0.323 -1.6084 -0.1695  0.8917
 1199ETH      C 4605   2.395   3.457   3.814 -0.3611 -0.3835  0.0653
 1199ETH     C1 4606   2.287   3.568   3.796 -0.1949  0.3717  0.4348
 1199ETH      O 4607   2.159   3.503   3.834  1.1340  0.1147  0.1035
 1199ETH      H 4608   2.466   3.486   3.736 -1.6087  1.0150 -0.6048
 1199ETH     H1 4609   2.367   3.355   3.785 -0.2596  0.0595 -1.6903
 1199ETH     H2 4610   2.428   3.473   3.917 -0.2055  1.7318 -0.2781
 1199ETH     H3 4611   2.288   3.656   3.861 -2.1144 -0.4007  1.5792
 1199ETH     H4 4612   2.284   3.589   3.689 -3.4001  0.8130  0.5290
 1199ETH     H5 4613   2.140   3.429   3.774 -2.1681  1.9156 -1.3232
 1200ETH      C 4614   0.411   0.428   2.170 -0.3769  0.4015 -0.2987
 1200ETH     C1 4615   0.425   0.406   2.021 -0.6239  0.1775 -0.6157
 1200ETH      O 4616   0.345   0.507   1.962  0.2251 -0.3825  0.1216
 1200ETH      H 4617   0.418   0.530   2.211  3.8180 -0.0370  0.5354
 1200ETH     H1 4618   0.495   0.385   2.227  0.0294  1.1053 -0.3500
 1200ETH     H2 4619   0.311   0.397   2.203 -0.7252  0.1977 -1.4967
 1200ETH     H3 4620   0.528   0.422   1.989 -1.1273  0.1055 -2.3888
 1200ETH     H4 4621   0.396   0.301   2.004 -2.8778  0.2842  1.8908
 1200ETH     H5 4622   0.377   0.597   1.980  0.3139  0.1384 -2.2215
 1201ETH      C 4623   4.107   0.292   4.203  0.0212  0.0397 -0.2363
 1201ETH     C1 4624   3.956   0.283   4.225  0.1419  0.6546 -0.0364
 1201ETH      O 4625   3.893   0.237   4.105 -0.6754 -0.1077 -0.0431
 1201ETH      H 4626   4.158   0.346   4.284 -1.2435  0.0868  0.5539
 1201ETH     H1 4627   4.125   0.334   4.103  0.2601  0.5597  0.0219
 1201ETH     H2 4628   4.149   0.191   4.200  1.7389  0.7347 -2.2638
 1201ETH     H3 4629   3.935   0.203   4.298  0.4732  1.5320  1.0445
 1201ETH     H4 4630   3.918   0.377   4.265  1.0067  1.4776 -1.0908
 1201ETH     H5 4631   3.864   0.144   4.114 -3.4181  0.6147 -0.4736
 1202ETH      C 4632   1.151   4.062   0.732  0.6947  0.4800 -0.0681
 1202ETH     C1 4633   1.133   3.950   0.625 -0.3138  0.2523  0.4125
 1202ETH      O 4634   1.012   3.971   0.552  0.8896  0.1306  0.6193
 1202ETH      H 4635   1.084   4.047   0.817  1.0649 -2.0271 -0.1458
 1202ETH     H1 4636   1.128   4.156   0.680 -1.9098 -0.9662 -1.7753
 1202ETH     H2 4637   1.248   4.061   0.781  0.1600 -2.6926  1.1731
 1202ETH     H3 4638   1.216   3.956   0.552  1.2059 -1.1497  1.9292
 1202ETH     H4 4639   1.135   3.852   0.674 -0.7446 -0.8538 -1.6585
 1202ETH     H5 4640   0.944   3.968   0.622 -1.0963  3.0769 -0.9625
 1203ETH      C 4641   2.220   3.095   3.666  0.3652  0.2370  0.5247
 1203ETH     C1 4642   2.092   3.161   3.627 -0.2385  0.2672  0.1071
 1203ETH      O 4643   2.079   3.290   3.670 -0.6149  0.0752  0.1951
 1203ETH      H 4644   2.235   2.989   3.642  1.2727  0.1108  1.5628
 1203ETH     H1 4645   2.215   3.089   3.775 -2.1871 -0.9452  0.4110
 1203ETH     H2 4646   2.305   3.159   3.637 -0.4770  1.9322  1.6682
 1203ETH     H3 4647   2.089   3.166   3.517  0.1256 -1.1819  0.0212
 1203ETH     H4 4648   2.010   3.100   3.666 -0.5821  0.2042 -0.6879
 1203ETH     H5 4649   1.989   3.284   3.707 -1.1570  2.6619 -0.4578
 1204ETH      C 4650   1.885   0.782   4.134 -0.1818  0.3727 -0.5731
 1204ETH     C1 4651   1.778   0.889   4.159  0.0936 -0.3170 -0.4276
 1204ETH      O 4652   1.839   1.000   4.232  0.3410  0.1165  0.6892
 1204ETH      H 4653   1.982   0.829   4.112 -0.4804  2.0301  1.3566
 1204ETH     H1 4654   1.840   0.702   4.074 -2.4487  0.8466  0.3914
 1204ETH     H2 4655   1.895   0.737   4.234 -0.0578 -1.0695 -1.2012
 1204ETH     H3 4656   1.741   0.938   4.067  1.3519 -0.4304 -1.0067
 1204ETH     H4 4657   1.693   0.844   4.212  1.2063  0.1367  1.8696
 1204ETH     H5 4658   1.787   1.082   4.226 -0.5586 -0.5471 -2.1796
 1205ETH      C 4659   2.032   0.903   3.775  0.7070  0.1520  0.4846
 1205ETH     C1 4660   2.115   0.986   3.675  0.0893  0.1968 -0.0858
 1205ETH      O 4661   2.034   1.090   3.614  0.2651  0.2555  0.1534
 1205ETH      H 4662   1.940   0.953   3.806  0.8476 -0.2013  1.4819
 1205ETH     H1 4663   2.095   0.872   3.859  0.9532 -1.9739 -0.4153
 1205ETH     H2 4664   1.991   0.818   3.718  2.3563 -1.9230  2.2466
 1205ETH     H3 4665   2.198   1.030   3.731 -1.9223  0.7064  2.6740
 1205ETH     H4 4666   2.155   0.919   3.597 -4.1710 -3.6261  0.6386
 1205ETH     H5 4667   1.955   1.043   3.584 -1.2334  0.6296  3.1560
 1206ETH      C 4668   0.124   2.200   0.911 -0.1243  0.1086 -0.9160
 1206ETH     C1 4669   0.151   2.321   0.825  0.1827 -0.5844  0.1439
 1206ETH      O 4670   0.289   2.329   0.806 -0.2579 -0.6142 -0.3021
 1206ETH      H 4671   0.019   2.170   0.906 -0.2373  0.3548 -0.1660
 1206ETH     H1 4672   0.157   2.210   1.015  2.2813  0.2134 -1.6238
 1206ETH     H2 4673   0.186   2.114   0.882  0.7349  0.2388  0.4575
 1206ETH     H3 4674   0.094   2.318   0.732  2.0108 -0.5976 -1.0365
 1206ETH     H4 4675   0.110   2.401   0.888 -1.4877 -1.9694  0.8842
 1206ETH     H5 4676   0.312   2.423   0.802 -3.0166  0.2634  1.7732
 1207ETH      C 4677   1.144   0.097   2.169  0.4477 -0.1460 -0.3884
 1207ETH     C1 4678   1.168   0.068   2.322 -0.0945  0.1139 -0.1563
 1207ETH      O 4679   1.197  -0.072   2.334  0.2042  0.0535 -0.4184
 1207ETH      H 4680   1.063   0.039   2.121  1.6843 -1.4659 -0.9717
 1207ETH     H1 4681   1.230   0.066   2.109  2.4930  2.4046  1.0431
 1207ETH     H2 4682   1.140   0.206   2.162  0.3120  0.2435  3.7255
 1207ETH     H3 4683   1.251   0.130   2.360 -0.6350  0.3126  0.7296
 1207ETH     H4 4684   1.082   0.096   2.383  0.9678  2.0318  0.5651
 1207ETH     H5 4685   1.149  -0.114   2.260 -1.0005 -1.9260  1.3676
 1208ETH      C 4686   0.352   0.463   1.060 -0.1426  0.0831 -0.8325
 1208ETH     C1 4687   0.371   0.316   1.084  0.6432 -0.4059  0.3305
 1208ETH      O 4688   0.501   0.295   1.138  0.0698  0.0452 -0.2967
 1208ETH      H 4689   0.261   0.485   1.002 -0.2240  2.0231 -0.0499
 1208ETH     H1 4690   0.440   0.513   1.017 -0.9598  1.6395 -0.7906
 1208ETH     H2 4691   0.350   0.508   1.160 -0.4277 -1.7547  0.0250
 1208ETH     H3 4692   0.295   0.273   1.150 -0.1163 -2.7693 -1.9053
 1208ETH     H4 4693   0.357   0.265   0.987 -0.9473 -1.0718  0.8754
 1208ETH     H5 4694   0.562   0.342   1.079  1.1150  1.9530  2.0791
 1209ETH      C 4695   2.263   1.319   3.192  0.4873 -0.4851 -0.6854
 1209ETH     C1 4696   2.391   1.407   3.187  0.3586  0.5949  0.3540
 1209ETH      O 4697   2.439   1.428   3.318 -0.2389 -0.3328 -0.6503
 1209ETH      H 4698   2.283   1.228   3.250  1.4408  0.4141  0.4481
 1209ETH     H1 4699   2.217   1.292   3.096 -0.7524  2.9475 -1.2039
 1209ETH     H2 4700   2.186   1.364   3.256  0.5657 -2.3817  0.8316
 1209ETH     H3 4701   2.463   1.346   3.130 -2.2959 -2.8998  0.4123
 1209ETH     H4 4702   2.361   1.500   3.137 -3.1540  0.1046  1.2650
 1209ETH     H5 4703   2.461   1.343   3.361 -1.4864  0.4880  1.7947
 1210ETH      C 4704   2.760   2.072   2.495 -0.0845  0.3176 -0.2212
 1210ETH     C1 4705   2.910   2.056   2.517  0.6039  0.0232 -0.2998
 1210ETH      O 4706   2.976   2.179   2.473  0.7805 -0.0282 -0.1020
 1210ETH      H 4707   2.728   2.064   2.391  0.0249 -2.9044 -0.1110
 1210ETH     H1 4708   2.716   2.161   2.542 -1.7923 -0.5339 -0.1335
 1210ETH     H2 4709   2.715   1.979   2.533  1.2668 -0.2218  0.1046
 1210ETH     H3 4710   2.926   2.043   2.624  2.8543  1.1817 -0.4471
 1210ETH     H4 4711   2.958   1.978   2.456  1.1418  0.8579 -0.9802
 1210ETH     H5 4712   2.930   2.194   2.389  2.6663  0.4196 -1.1326
 1211ETH      C 4713   1.648   3.732   3.770 -0.3546 -0.1872 -0.1543
 1211ETH     C1 4714   1.670   3.609   3.688  0.5505  0.5958 -0.2513
 1211ETH      O 4715   1.796   3.541   3.718 -0.4973 -0.5982  0.0008
 1211ETH      H 4716   1.555   3.785   3.747 -0.8330 -0.1364  1.7878
 1211ETH     H1 4717   1.731   3.803   3.770 -0.6933  0.2835 -2.3297
 1211ETH     H2 4718   1.632   3.705   3.875 -0.5490 -0.3879 -0.2351
 1211ETH     H3 4719   1.590   3.537   3.708  0.0864  1.4218  0.9563
 1211ETH     H4 4720   1.654   3.621   3.580 -1.6747 -0.6171 -0.1106
 1211ETH     H5 4721   1.857   3.608   3.754 -1.1721  0.0092  0.0472
 1212ETH      C 4722   0.748   2.737   0.414  1.0368 -0.0320  0.2198
 1212ETH     C1 4723   0.684   2.604   0.466 -0.1622 -0.2820 -0.4713
 1212ETH      O 4724   0.784   2.502   0.458 -0.1240  0.1510 -0.2319
 1212ETH      H 4725   0.825   2.775   0.482 -0.7503  0.2828  2.2014
 1212ETH     H1 4726   0.677   2.821   0.415  0.5734 -0.3755  2.9307
 1212ETH     H2 4727   0.784   2.717   0.313 -2.1766  0.5099 -1.1570
 1212ETH     H3 4728   0.654   2.621   0.570 -0.2552  1.7646 -0.7883
 1212ETH     H4 4729   0.598   2.571   0.407 -1.3339  0.5796  0.6863
 1212ETH     H5 4730   0.830   2.495   0.543  1.3146  0.5548 -0.9402
 1213ETH      C 4731   0.407   3.929   3.974  0.4048  0.3645 -0.1101
 1213ETH     C1 4732   0.375   3.798   4.052  0.0961 -0.3456  0.2544
 1213ETH      O 4733   0.375   3.685   3.966 -0.2420 -0.8579 -0.4739
 1213ETH      H 4734   0.499   3.968   4.019 -0.3032 -0.4954  2.2352
 1213ETH     H1 4735   0.324   4.001   3.977 -0.2299 -0.3706  0.4997
 1213ETH     H2 4736   0.422   3.913   3.867 -0.3002 -1.2932  0.0188
 1213ETH     H3 4737   0.450   3.787   4.131  0.2283  0.0219  0.1817
 1213ETH     H4 4738   0.276   3.806   4.099 -0.6103 -2.8882 -0.6460
 1213ETH     H5 4739   0.429   3.623   4.017 -0.7951  0.0964  1.3731
 1214ETH      C 4740   2.797   0.558   2.702  0.6929 -0.2167  0.9286
 1214ETH     C1 4741   2.777   0.472   2.577 -0.4520 -1.1631 -0.4613
 1214ETH      O 4742   2.635   0.450   2.574 -0.3352  0.2144 -0.0226
 1214ETH      H 4743   2.723   0.639   2.696  0.3095 -0.4714  2.0011
 1214ETH     H1 4744   2.901   0.589   2.718  1.2700 -2.4831  1.9393
 1214ETH     H2 4745   2.764   0.490   2.781  0.0688  0.1475  0.9849
 1214ETH     H3 4746   2.812   0.516   2.482 -1.8911 -0.0019 -0.4875
 1214ETH     H4 4747   2.830   0.378   2.593  2.3487  0.3048 -0.4859
 1214ETH     H5 4748   2.619   0.409   2.487  0.6319  1.8240 -1.0151
 1215ETH      C 4749   3.666   0.016   2.296 -0.1884 -0.1199 -0.4029
 1215ETH     C1 4750   3.678   0.087   2.149  1.2055  0.2519 -0.0766
 1215ETH      O 4751   3.810   0.065   2.097  0.3004  0.0190  0.3832
 1215ETH      H 4752   3.755   0.046   2.353  0.6277 -1.5374 -0.8779
 1215ETH     H1 4753   3.659  -0.093   2.291  1.6729 -0.3825  1.6642
 1215ETH     H2 4754   3.569   0.048   2.336  0.5136 -1.2470  2.4630
 1215ETH     H3 4755   3.603   0.039   2.085 -0.1191  0.0304  1.5699
 1215ETH     H4 4756   3.643   0.191   2.154 -1.3041 -0.5439  0.2117
 1215ETH     H5 4757   3.814   0.107   2.009  3.3634  1.3102  1.0130
 1216ETH      C 4758   0.928   0.727   0.070  0.1328  0.4253  0.2174
 1216ETH     C1 4759   1.087   0.701   0.082 -0.2629  0.1112  0.7643
 1216ETH      O 4760   1.151   0.767  -0.029  0.4565  0.1983  0.6497
 1216ETH      H 4761   0.892   0.672  -0.017  1.7907  1.5593 -1.2546
 1216ETH     H1 4762   0.921   0.829   0.030 -0.1017 -0.2096 -1.4134
 1216ETH     H2 4763   0.866   0.710   0.159  0.8881  1.9820  1.0987
 1216ETH     H3 4764   1.131   0.744   0.173  2.2728 -1.0511  0.1681
 1216ETH     H4 4765   1.115   0.596   0.076  1.7960  0.6777 -0.6649
 1216ETH     H5 4766   1.117   0.741  -0.116  0.3034  0.4467  0.6337
 1217ETH      C 4767   0.711   2.479   1.671 -0.0453  0.2781  0.1810
 1217ETH     C1 4768   0.804   2.485   1.789  0.2717  0.7340  0.3515
 1217ETH      O 4769   0.746   2.557   1.899  0.0742 -0.6890  0.3948
 1217ETH      H 4770   0.768   2.437   1.587 -0.9589 -1.2497  0.2825
 1217ETH     H1 4771   0.683   2.579   1.637 -1.0155 -0.4764 -1.3285
 1217ETH     H2 4772   0.624   2.414   1.688  1.5743 -1.7693  1.1351
 1217ETH     H3 4773   0.834   2.383   1.817 -0.9608 -0.3050 -1.8838
 1217ETH     H4 4774   0.894   2.546   1.774 -2.2733  5.0156  0.6814
 1217ETH     H5 4775   0.710   2.482   1.949  1.0409 -0.8332  0.9027
 1218ETH      C 4776   0.115   0.138   0.807  0.4298 -0.2977  0.2545
 1218ETH     C1 4777   0.029   0.102   0.929  0.1282  0.3851  0.0923
 1218ETH      O 4778  -0.002  -0.041   0.933 -0.0354 -0.1744 -0.6336
 1218ETH      H 4779   0.127   0.245   0.793 -0.0065 -0.2682  0.0726
 1218ETH     H1 4780   0.057   0.117   0.716  1.6169  1.3286 -0.9221
 1218ETH     H2 4781   0.212   0.087   0.805  1.4066  1.4591 -2.6914
 1218ETH     H3 4782   0.090   0.122   1.018  1.5859  1.0943 -1.0320
 1218ETH     H4 4783  -0.064   0.160   0.926 -0.4237 -0.4436  0.7472
 1218ETH     H5 4784  -0.009  -0.069   0.840  0.8401  0.9430 -1.0553
 1219ETH      C 4785   3.373   2.045   3.891  0.3960  0.3822  0.1356
 1219ETH     C1 4786   3.463   1.928   3.917  0.5413 -0.4145  0.1784
 1219ETH      O 4787   3.550   1.959   4.032 -0.0006 -0.2023  0.1342
 1219ETH      H 4788   3.427   2.124   3.837 -0.3343  2.5965  2.4431
 1219ETH     H1 4789   3.325   2.087   3.980 -0.3981 -0.8806  0.3189
 1219ETH     H2 4790   3.287   2.011   3.833  0.9273 -1.8804  0.5823
 1219ETH     H3 4791   3.415   1.831   3.932  0.7005 -0.7823 -1.5130
 1219ETH     H4 4792   3.525   1.911   3.828  0.7959  0.6783  0.1248
 1219ETH     H5 4793   3.517   1.913   4.111 -0.5039 -0.0420  0.0245
 1220ETH      C 4794   3.956   3.705   1.818 -0.1898  0.2599  0.2957
 1220ETH     C1 4795   3.999   3.741   1.679 -0.3838 -0.1623  0.4067
 1220ETH      O 4796   3.894   3.799   1.609  0.2143  0.1558  0.0126
 1220ETH      H 4797   4.047   3.670   1.869  0.6796  2.3351  0.3096
 1220ETH     H1 4798   3.882   3.625   1.816  0.8147 -0.6841 -0.0144
 1220ETH     H2 4799   3.929   3.803   1.861  0.5301  1.6746 -2.2830
 1220ETH     H3 4800   4.079   3.814   1.695 -1.0028  0.6045  0.1012
 1220ETH     H4 4801   4.044   3.656   1.627 -1.7855  0.0462 -1.2367
 1220ETH     H5 4802   3.820   3.820   1.668 -0.1465 -0.4909 -0.1991
 1221ETH      C 4803   1.528   0.711   0.533  0.2582 -0.4529  0.0658
 1221ETH     C1 4804   1.431   0.696   0.649  0.4106 -0.4813 -0.2103
 1221ETH      O 4805   1.494   0.619   0.756 -0.2517 -0.2597  0.2725
 1221ETH      H 4806   1.562   0.612   0.499 -0.6829 -0.4180 -1.0432
 1221ETH     H1 4807   1.612   0.777   0.555  0.5863 -0.0038 -2.2343
 1221ETH     H2 4808   1.477   0.767   0.454  1.2082 -0.1769 -0.3689
 1221ETH     H3 4809   1.399   0.796   0.682 -1.1998 -1.2422  0.6577
 1221ETH     H4 4810   1.336   0.657   0.609 -0.1510  1.9872 -1.5006
 1221ETH     H5 4811   1.558   0.676   0.801 -0.2228 -1.3103  1.6379
 1222ETH      C 4812   0.004   3.836   0.742 -0.0222 -0.3422 -0.2204
 1222ETH     C1 4813  -0.046   3.896   0.873  0.1199  0.1671  0.0327
 1222ETH      O 4814  -0.009   3.806   0.974 -0.2719 -0.2185  0.6339
 1222ETH      H 4815   0.113   3.839   0.734  0.1014 -0.6459  1.0605
 1222ETH     H1 4816  -0.039   3.907   0.671 -0.4848  2.6418  2.8036
 1222ETH     H2 4817  -0.044   3.743   0.710 -1.1793 -0.3479  1.3989
 1222ETH     H3 4818   0.001   3.994   0.887 -1.5870  0.9504  0.5268
 1222ETH     H4 4819  -0.155   3.910   0.875  0.3642  2.6125  1.1579
 1222ETH     H5 4820   0.082   3.836   0.993  0.0251 -0.4542 -0.3907
 1223ETH      C 4821   1.059   0.237   1.663 -0.5463 -0.2246  0.4482
 1223ETH     C1 4822   1.167   0.132   1.666  0.8897  0.1803 -0.1724
 1223ETH      O 4823   1.112  -0.003   1.688  0.0391 -0.1908  0.0624
 1223ETH      H 4824   1.024   0.246   1.767 -3.5382 -0.0270 -0.4769
 1223ETH     H1 4825   0.976   0.218   1.594 -1.1459 -0.3288  1.1760
 1223ETH     H2 4826   1.112   0.327   1.633 -0.6846 -0.6849 -1.2706
 1223ETH     H3 4827   1.211   0.136   1.566 -2.5109  0.0842 -1.8454
 1223ETH     H4 4828   1.229   0.162   1.751 -0.7814 -0.7954  1.4699
 1223ETH     H5 4829   1.071  -0.028   1.604 -0.8886  0.6024  0.2510
 1224ETH      C 4830   3.795   2.151   1.607  0.5788 -0.1571 -0.3998
 1224ETH     C1 4831   3.782   2.002   1.564  0.4076  0.0537  0.1607
 1224ETH      O 4832   3.711   1.925   1.664  0.1268  0.3703 -0.4153
 1224ETH      H 4833   3.854   2.211   1.537  2.5649 -0.9685  0.5025
 1224ETH     H1 4834   3.839   2.155   1.708  0.2284 -1.8409 -0.1529
 1224ETH     H2 4835   3.695   2.190   1.632  1.1479 -0.0015  1.9062
 1224ETH     H3 4836   3.724   1.991   1.471 -2.0280  0.7519  1.5086
 1224ETH     H4 4837   3.883   1.961   1.558 -0.4071 -1.9623 -0.5620
 1224ETH     H5 4838   3.646   1.877   1.609  0.3647 -2.4355  1.5554
 1225ETH      C 4839   1.013   0.892   2.467 -0.0253 -0.4564 -0.1123
 1225ETH     C1 4840   1.012   1.053   2.450  0.5911 -0.2643 -0.3445
 1225ETH      O 4841   0.884   1.101   2.487 -0.5298 -0.1244  0.5062
 1225ETH      H 4842   1.104   0.863   2.415  0.7877 -0.0941  1.0832
 1225ETH     H1 4843   0.930   0.844   2.414 -0.3676 -1.1128  0.9897
 1225ETH     H2 4844   1.035   0.855   2.568 -1.8707  0.1048  0.5427
 1225ETH     H3 4845   1.092   1.099   2.509  2.6168  0.3469 -3.3088
 1225ETH     H4 4846   1.031   1.078   2.345  1.2513 -3.2402 -1.0269
 1225ETH     H5 4847   0.847   1.054   2.563 -1.5294 -1.2090 -0.6023
 1226ETH      C 4848   2.967   0.449   1.663 -0.4788  0.4506  0.4123
 1226ETH     C1 4849   3.004   0.411   1.519 -0.4634 -0.5801  0.0803
 1226ETH      O 4850   3.123   0.331   1.511 -0.2896 -0.3449  0.5262
 1226ETH      H 4851   3.028   0.396   1.737 -0.9477  1.6046  1.6643
 1226ETH     H1 4852   2.862   0.423   1.681  0.0365 -2.6699 -0.4217
 1226ETH     H2 4853   2.981   0.556   1.680  2.2290  0.7546 -2.6325
 1226ETH     H3 4854   2.924   0.354   1.469  2.6000 -2.3383 -3.3511
 1226ETH     H4 4855   3.017   0.503   1.461 -0.2026  0.5983  1.9578
 1226ETH     H5 4856   3.205   0.376   1.487  0.8190 -2.7903 -0.5580
 1227ETH      C 4857   4.072   4.100   1.860 -0.1830  0.2831 -0.6422
 1227ETH     C1 4858   4.224   4.079   1.892 -0.6711 -0.2514  0.4998
 1227ETH      O 4859   4.238   3.967   1.979  0.6902 -0.0501  0.7947
 1227ETH      H 4860   4.015   4.056   1.943  0.1276 -0.0206 -0.5860
 1227ETH     H1 4861   4.044   4.036   1.775 -0.0543  0.2602 -0.6660
 1227ETH     H2 4862   4.042   4.204   1.842 -0.2046  0.4010  0.0426
 1227ETH     H3 4863   4.277   4.059   1.798 -3.3568  0.2990 -1.2254
 1227ETH     H4 4864   4.274   4.165   1.938  0.2665  0.0991 -1.0812
 1227ETH     H5 4865   4.258   3.886   1.928  0.7014 -0.5843  1.6446
 1228ETH      C 4866   3.694   3.567   0.113 -0.4555  0.1016 -0.1277
 1228ETH     C1 4867   3.802   3.653   0.044 -0.2915 -0.6155  0.6037
 1228ETH      O 4868   3.754   3.785   0.013 -0.4770  0.3526 -0.5458
 1228ETH      H 4869   3.737   3.473   0.150  2.5719  1.0295 -1.0583
 1228ETH     H1 4870   3.613   3.543   0.043 -1.9957  0.7447  1.3298
 1228ETH     H2 4871   3.654   3.622   0.199 -0.6891  1.5273 -1.1259
 1228ETH     H3 4872   3.890   3.659   0.109  0.1537 -0.8776  0.0367
 1228ETH     H4 4873   3.833   3.610  -0.052 -1.8445  0.1954 -0.3126
 1228ETH     H5 4874   3.713   3.817   0.095  0.4094  0.8298 -0.2723
 1229ETH      C 4875   2.913   0.886   2.846  0.1636  0.2472  0.1082
 1229ETH     C1 4876   2.886   0.901   2.996  0.3981 -0.7980  1.1018
 1229ETH      O 4877   2.757   0.848   3.026  0.0082 -0.8401  0.1127
 1229ETH      H 4878   2.837   0.924   2.777  2.1504  1.4789 -1.5225
 1229ETH     H1 4879   2.937   0.781   2.828  0.4711 -0.3951  3.4892
 1229ETH     H2 4880   3.006   0.938   2.820 -0.9302  2.7630  0.8646
 1229ETH     H3 4881   2.957   0.832   3.044 -0.2284 -1.9304  0.4431
 1229ETH     H4 4882   2.893   1.003   3.035 -2.7048 -0.0723  0.0090
 1229ETH     H5 4883   2.719   0.899   3.100 -1.3700 -1.7202  0.0532
 1230ETH      C 4884   3.544   0.912   1.185  0.8953  0.1306  0.1349
 1230ETH     C1 4885   3.471   0.811   1.099 -0.1929  0.4549 -0.2952
 1230ETH      O 4886   3.524   0.681   1.123 -0.1518 -0.1761  0.4185
 1230ETH      H 4887   3.647   0.924   1.149  0.4983  1.0500 -0.7417
 1230ETH     H1 4888   3.549   0.874   1.288  0.4832 -2.4419 -0.7326
 1230ETH     H2 4889   3.507   1.014   1.167  1.9441  0.3515 -0.9157
 1230ETH     H3 4890   3.368   0.814   1.137  0.2940  2.5663  0.9988
 1230ETH     H4 4891   3.468   0.832   0.991  1.4635 -1.5682 -0.7913
 1230ETH     H5 4892   3.451   0.625   1.153  0.6584 -0.6743  1.5384
 1231ETH      C 4893   3.642   0.650   0.010 -0.4449  0.4430 -0.3692
 1231ETH     C1 4894   3.597   0.789  -0.023 -0.1718 -0.0443  0.1057
 1231ETH      O 4895   3.715   0.869  -0.020 -0.6700  0.5269 -0.3718
 1231ETH      H 4896   3.686   0.643   0.110 -0.0076  2.5842 -0.3662
 1231ETH     H1 4897   3.708   0.605  -0.066 -1.0074 -1.8357  0.4009
 1231ETH     H2 4898   3.554   0.585   0.003  0.0273 -0.5257  1.7995
 1231ETH     H3 4899   3.551   0.795  -0.123  0.3332  0.6714 -0.0903
 1231ETH     H4 4900   3.521   0.820   0.049  0.4070  1.1813  0.2100
 1231ETH     H5 4901   3.783   0.834  -0.080 -0.4090  1.8406 -0.8683
 1232ETH      C 4902   0.961   2.358   3.554  0.4613 -0.4305  0.1094
 1232ETH     C1 4903   0.941   2.289   3.693  0.1183 -0.1466  0.3962
 1232ETH      O 4904   1.062   2.282   3.765  0.2508 -0.5456  0.1302
 1232ETH      H 4905   1.025   2.288   3.499  0.2718 -1.0105  0.6065
 1232ETH     H1 4906   1.010   2.455   3.563  3.6941 -1.9343  0.3240
 1232ETH     H2 4907   0.865   2.366   3.502 -0.2275  3.0311  1.6645
 1232ETH     H3 4908   0.868   2.349   3.747  1.0150  0.9912  0.3783
 1232ETH     H4 4909   0.899   2.188   3.684 -0.6726 -0.2539  3.9561
 1232ETH     H5 4910   1.054   2.352   3.832 -1.6540  0.5470 -1.1571
 1233ETH      C 4911   4.126   4.145   3.762 -0.4441  0.6251 -0.1181
 1233ETH     C1 4912   4.263   4.188   3.809 -0.8174 -0.0394 -0.1556
 1233ETH      O 4913   4.248   4.300   3.910 -0.3055  0.2174 -0.0220
 1233ETH      H 4914   4.093   4.222   3.692 -0.0293  2.1283  1.2828
 1233ETH     H1 4915   4.056   4.135   3.846 -1.4160 -0.5734 -1.0368
 1233ETH     H2 4916   4.127   4.042   3.725  0.8747  0.3748  0.5495
 1233ETH     H3 4917   4.326   4.103   3.837 -0.5723 -0.6080 -2.2863
 1233ETH     H4 4918   4.319   4.232   3.726  0.1083 -0.7602  0.0823
 1233ETH     H5 4919   4.335   4.314   3.951  0.5110 -1.1534 -1.1877
 1234ETH      C 4920   3.258   1.194   1.995 -0.0857 -0.4937  0.5207
 1234ETH     C1 4921   3.393   1.215   2.075 -0.2622  0.0013 -0.2282
 1234ETH      O 4922   3.442   1.347   2.054 -0.0629 -0.1161  0.3555
 1234ETH      H 4923   3.224   1.090   1.993 -0.1337 -0.4833 -2.1559
 1234ETH     H1 4924   3.259   1.242   1.897 -1.8302 -0.0779  0.6784
 1234ETH     H2 4925   3.187   1.255   2.052  1.2344 -0.7517  2.5875
 1234ETH     H3 4926   3.378   1.205   2.183  0.5455 -0.8494 -0.1853
 1234ETH     H4 4927   3.468   1.145   2.037 -0.9906  0.8582 -3.5953
 1234ETH     H5 4928   3.369   1.408   2.075 -0.1011 -0.8386  2.5169
 1235ETH      C 4929   4.139   0.425   0.488  0.1471  0.8947  0.1166
 1235ETH     C1 4930   4.112   0.294   0.566 -0.5736  0.1736  0.0154
 1235ETH      O 4931   4.126   0.184   0.473 -0.3161  0.8228 -0.3898
 1235ETH      H 4932   4.112   0.510   0.553 -1.4412  0.1609  0.4555
 1235ETH     H1 4933   4.081   0.414   0.396  1.8081  0.1818 -0.9063
 1235ETH     H2 4934   4.241   0.439   0.450 -0.2822  1.1381 -0.9799
 1235ETH     H3 4935   4.182   0.273   0.648  1.5783  1.8475 -1.2990
 1235ETH     H4 4936   4.008   0.300   0.602 -0.7505  1.4528 -0.6562
 1235ETH     H5 4937   4.050   0.127   0.497 -0.6702  0.2716 -2.6309
 1236ETH      C 4938   1.861   1.127   0.713 -0.3907  0.8135 -0.2930
 1236ETH     C1 4939   1.848   1.009   0.807 -0.0385 -0.4950  0.4780
 1236ETH      O 4940   1.756   0.909   0.763  0.6036  0.2143 -0.1165
 1236ETH      H 4941   1.953   1.178   0.742  1.2905 -2.5777  0.8523
 1236ETH     H1 4942   1.775   1.194   0.727 -2.1957 -1.3060 -0.5213
 1236ETH     H2 4943   1.870   1.099   0.607 -0.7012  0.5728 -0.2581
 1236ETH     H3 4944   1.950   0.968   0.801 -0.1285 -0.6300 -0.1832
 1236ETH     H4 4945   1.826   1.049   0.907 -0.5984 -1.6182  0.8178
 1236ETH     H5 4946   1.727   0.859   0.841  0.7080  0.6041  0.1791
 1237ETH      C 4947   0.319   4.074   0.641 -0.2595  0.3898 -0.2873
 1237ETH     C1 4948   0.272   4.126   0.508  0.3352  1.3552 -0.2085
 1237ETH      O 4949   0.245   4.012   0.422 -0.2364 -0.1072 -0.4121
 1237ETH      H 4950   0.428   4.064   0.646 -0.1726  1.6639  1.0575
 1237ETH     H1 4951   0.269   3.981   0.669 -0.4381  0.4635 -0.3609
 1237ETH     H2 4952   0.308   4.149   0.720 -0.5011  0.6461 -0.5638
 1237ETH     H3 4953   0.180   4.184   0.513  0.2437  1.3172 -1.3048
 1237ETH     H4 4954   0.354   4.189   0.471  0.3682  1.5893  0.2576
 1237ETH     H5 4955   0.165   3.966   0.452 -0.3554  0.8261  0.7929
 1238ETH      C 4956   0.373   2.347   1.407  0.4628  0.3922 -0.5000
 1238ETH     C1 4957   0.305   2.419   1.282  0.5250 -0.0259 -0.2840
 1238ETH      O 4958   0.384   2.522   1.227 -0.1564 -0.4310 -0.0225
 1238ETH      H 4959   0.457   2.285   1.374  0.3066 -0.5030  0.6655
 1238ETH     H1 4960   0.298   2.283   1.455  1.1110  0.8745  1.2285
 1238ETH     H2 4961   0.393   2.416   1.490 -2.0713 -0.8557  1.3126
 1238ETH     H3 4962   0.284   2.342   1.206  1.8114 -1.9192  1.1836
 1238ETH     H4 4963   0.215   2.461   1.330  1.9991  1.9970  0.8596
 1238ETH     H5 4964   0.328   2.597   1.201 -0.1753 -0.2021  0.6626
 1239ETH      C 4965   0.315   1.124   4.062 -0.3599 -0.2104  0.1927
 1239ETH     C1 4966   0.273   1.162   4.201 -0.1698  0.5844 -0.5644
 1239ETH      O 4967   0.290   1.302   4.215  0.3251  0.1180  0.2817
 1239ETH      H 4968   0.313   1.015   4.058 -1.3150 -0.2002  0.0406
 1239ETH     H1 4969   0.409   1.169   4.028 -0.2651 -1.2080 -0.9115
 1239ETH     H2 4970   0.226   1.165   4.013 -1.3125 -1.4080  0.8626
 1239ETH     H3 4971   0.174   1.127   4.231 -0.3325  1.8950  0.5265
 1239ETH     H4 4972   0.341   1.110   4.270  2.0426  0.9658 -2.3265
 1239ETH     H5 4973   0.252   1.333   4.131 -0.3197  0.6216  0.7487
 1240ETH      C 4974   1.603   1.575   1.707 -0.1640 -0.3010  0.8846
 1240ETH     C1 4975   1.505   1.471   1.769 -0.5957 -0.0995  0.0053
 1240ETH      O 4976   1.564   1.337   1.770  0.0899  0.9706  0.1954
 1240ETH      H 4977   1.605   1.571   1.597  2.2648  1.0425  0.8079
 1240ETH     H1 4978   1.707   1.573   1.742  0.7545 -0.8206 -1.6298
 1240ETH     H2 4979   1.552   1.669   1.731 -0.1797 -0.1854  0.4052
 1240ETH     H3 4980   1.486   1.499   1.873  0.2661  2.1060 -0.3858
 1240ETH     H4 4981   1.405   1.474   1.724 -0.1463  1.2560 -0.9647
 1240ETH     H5 4982   1.549   1.293   1.855  3.0149 -0.0423  0.3016
 1241ETH      C 4983   2.730   3.788   4.066 -0.3295 -0.3342  0.7585
 1241ETH     C1 4984   2.849   3.736   4.150  0.1134 -0.2406 -0.1373
 1241ETH      O 4985   2.827   3.778   4.285  0.4532 -0.1152  0.5812
 1241ETH      H 4986   2.730   3.735   3.970  0.1305  0.8229  0.1008
 1241ETH     H1 4987   2.734   3.895   4.043  0.9734 -0.6817 -0.8271
 1241ETH     H2 4988   2.646   3.760   4.131 -0.5426 -1.3547  0.0753
 1241ETH     H3 4989   2.857   3.626   4.143  0.5544 -0.1221 -1.8639
 1241ETH     H4 4990   2.945   3.771   4.111  0.1856 -1.6863 -1.3580
 1241ETH     H5 4991   2.860   3.702   4.335 -3.6059 -1.1532  2.0913
 1242ETH      C 4992   0.432   0.703   4.124 -0.8076 -0.4286  0.4482
 1242ETH     C1 4993   0.492   0.602   4.033 -0.9192  0.6634  0.1662
 1242ETH      O 4994   0.629   0.570   4.069  0.3656  0.4304  0.1837
 1242ETH      H 4995   0.415   0.657   4.222 -0.4764  1.6920  1.5636
 1242ETH     H1 4996   0.339   0.748   4.089 -0.0332  2.2844  1.5700
 1242ETH     H2 4997   0.504   0.786   4.125 -2.3059  0.9407 -0.4495
 1242ETH     H3 4998   0.433   0.511   4.021 -1.1097  0.8804 -0.6289
 1242ETH     H4 4999   0.498   0.640   3.930 -1.3300  0.7016  0.1548
 1242ETH     H5 5000   0.628   0.530   4.157  2.2427  1.4384  0.7233
 1243ETH      C 5001   1.291   0.366   0.251 -0.2453 -0.0074  0.2868
 1243ETH     C1 5002   1.289   0.435   0.391 -0.0516 -0.3208 -0.4880
 1243ETH      O 5003   1.171   0.398   0.462 -0.1731 -0.2622  0.0333
 1243ETH      H 5004   1.255   0.438   0.177 -0.7438 -1.1299 -0.5897
 1243ETH     H1 5005   1.221   0.282   0.251  0.4582 -0.6467 -2.1612
 1243ETH     H2 5006   1.391   0.342   0.214 -0.9089  2.1315 -3.4001
 1243ETH     H3 5007   1.369   0.388   0.450 -0.4758 -1.8507 -1.0605
 1243ETH     H4 5008   1.303   0.543   0.381  2.9126 -0.6788 -1.2112
 1243ETH     H5 5009   1.201   0.379   0.553 -0.5316  0.1641  0.2439
 1244ETH      C 5010   0.939   2.515   3.148 -0.2746 -0.9792 -0.5805
 1244ETH     C1 5011   0.816   2.579   3.084  0.1952 -0.3573  0.5641
 1244ETH      O 5012   0.841   2.640   2.956 -0.3881 -0.3339 -0.5678
 1244ETH      H 5013   0.902   2.462   3.236 -0.7563 -1.8804 -1.3046
 1244ETH     H1 5014   1.013   2.591   3.172  0.9299 -1.9201 -1.1870
 1244ETH     H2 5015   0.988   2.448   3.076 -0.2987  0.0461 -1.5672
 1244ETH     H3 5016   0.739   2.503   3.066  1.1604 -1.5163  1.1967
 1244ETH     H4 5017   0.768   2.648   3.154 -0.5760 -1.8562  1.5640
 1244ETH     H5 5018   0.916   2.588   2.922  0.8286  1.0780 -0.1578
 1245ETH      C 5019   1.420   2.497   0.011  0.4467  0.5836 -0.0411
 1245ETH     C1 5020   1.310   2.587  -0.051  0.0438 -0.0279  0.7370
 1245ETH      O 5021   1.288   2.703   0.024  0.1507 -0.1253 -0.6015
 1245ETH      H 5022   1.392   2.477   0.115 -1.2456 -0.6426 -0.6902
 1245ETH     H1 5023   1.518   2.546   0.015  1.3805 -1.2768  1.5839
 1245ETH     H2 5024   1.422   2.406  -0.051 -2.2390 -0.8881  1.8300
 1245ETH     H3 5025   1.337   2.617  -0.153  0.8040  0.0958  0.9696
 1245ETH     H4 5026   1.214   2.534  -0.043 -0.0453  0.0457  0.1738
 1245ETH     H5 5027   1.355   2.769  -0.002 -1.7538  1.1670 -2.5895
 1246ETH      C 5028   2.448   0.132   0.090 -0.0251  0.7535  0.5884
 1246ETH     C1 5029   2.594   0.166   0.081 -0.1090 -0.5664 -0.2687
 1246ETH      O 5030   2.662   0.116   0.187 -0.3889  0.4173  0.4884
 1246ETH      H 5031   2.402   0.160   0.186  0.7417  0.3699  1.0758
 1246ETH     H1 5032   2.435   0.024   0.076  0.9423  0.8787 -1.5730
 1246ETH     H2 5033   2.399   0.176   0.001  2.2948  1.3998 -0.4331
 1246ETH     H3 5034   2.626   0.130  -0.017 -2.6466 -1.4023 -0.8739
 1246ETH     H4 5035   2.603   0.275   0.093  0.3819 -0.7765  1.6733
 1246ETH     H5 5036   2.759   0.126   0.179 -0.3384  4.4889  2.9762
 1247ETH      C 5037   2.578   1.163   3.908  0.1421  0.5489 -0.5296
 1247ETH     C1 5038   2.596   1.072   3.782  0.4461  0.4102 -0.2321
 1247ETH      O 5039   2.475   1.075   3.703  0.3185  0.1271  0.1351
 1247ETH      H 5040   2.483   1.141   3.958 -0.3990  1.1357 -1.2688
 1247ETH     H1 5041   2.564   1.266   3.872  0.8668  0.9994  0.4251
 1247ETH     H2 5042   2.658   1.162   3.983  0.4549 -1.5111 -0.8239
 1247ETH     H3 5043   2.682   1.100   3.720 -0.9764  1.8334 -1.6591
 1247ETH     H4 5044   2.609   0.969   3.817 -2.2209  0.1376  0.2070
 1247ETH     H5 5045   2.443   0.984   3.690 -0.7103  0.3952  0.6790
 1248ETH      C 5046   4.220   4.220   3.009 -0.0447 -0.5621 -0.2552
 1248ETH     C1 5047   4.170   4.074   3.003  0.2020  0.6266 -0.0479
 1248ETH      O 5048   4.266   3.982   2.957  0.4033  0.0045 -0.5690
 1248ETH      H 5049   4.135   4.267   3.060  0.5891 -0.5326  0.8055
 1248ETH     H1 5050   4.250   4.272   2.917 -2.3823  0.0703 -0.7212
 1248ETH     H2 5051   4.303   4.233   3.079 -1.3483  1.8879  0.9537
 1248ETH     H3 5052   4.138   4.036   3.100 -2.1605  0.2848 -0.8779
 1248ETH     H4 5053   4.085   4.074   2.933  0.7316 -1.6403 -0.7767
 1248ETH     H5 5054   4.288   4.001   2.864  1.8273  0.5633 -0.1534
 1249ETH      C 5055   2.857   0.511   4.236  0.5885  0.0835  0.6374
 1249ETH     C1 5056   3.015   0.508   4.250  0.1090 -0.1659 -0.5527
 1249ETH      O 5057   3.062   0.389   4.303 -0.0988 -0.0315  0.5320
 1249ETH      H 5058   2.809   0.482   4.330  0.1257 -0.6226  0.1895
 1249ETH     H1 5059   2.828   0.441   4.157 -2.9130  0.7928  1.1425
 1249ETH     H2 5060   2.815   0.601   4.189  1.3953  0.6309  0.9434
 1249ETH     H3 5061   3.049   0.525   4.147  3.4051 -1.3752  0.2234
 1249ETH     H4 5062   3.047   0.596   4.307 -1.7247 -0.6320  1.3187
 1249ETH     H5 5063   3.061   0.325   4.231 -1.4957 -0.7331  1.1432
 1250ETH      C 5064   0.969   3.054   1.764 -0.5169  0.1908 -0.2564
 1250ETH     C1 5065   0.962   2.944   1.869  0.4092  0.2100  0.5950
 1250ETH      O 5066   0.855   2.980   1.955 -0.6792  0.1516 -0.2726
 1250ETH      H 5067   0.876   3.083   1.714 -0.8035  1.3702  0.8854
 1250ETH     H1 5068   1.031   3.027   1.678 -0.7679 -0.7669 -0.1511
 1250ETH     H2 5069   1.018   3.140   1.811  0.5229 -1.6287  2.2299
 1250ETH     H3 5070   0.955   2.845   1.822 -0.6681  0.1415  0.8750
 1250ETH     H4 5071   1.056   2.944   1.925  1.3896 -0.0015 -0.9717
 1250ETH     H5 5072   0.771   2.936   1.934  0.5256 -2.5792  0.2804
 1251ETH      C 5073   2.337   0.972   0.639  0.9939  0.2397  0.2336
 1251ETH     C1 5074   2.231   0.948   0.753 -0.3392  0.7482 -0.3571
 1251ETH      O 5075   2.182   0.817   0.752  0.3458 -0.0934  0.2142
 1251ETH      H 5076   2.434   0.926   0.663 -0.3280 -1.4961  2.6842
 1251ETH     H1 5077   2.364   1.077   0.623  0.7144  0.8557  3.2148
 1251ETH     H2 5078   2.307   0.925   0.544  2.2714 -1.6009  0.6843
 1251ETH     H3 5079   2.281   0.965   0.849  1.2073 -0.4068 -0.9024
 1251ETH     H4 5080   2.158   1.025   0.728 -1.1130  0.1684  0.0938
 1251ETH     H5 5081   2.117   0.809   0.680 -1.0771  0.8047  1.3305
 1252ETH      C 5082   3.247   3.807   3.015 -0.2082  1.0577  0.7118
 1252ETH     C1 5083   3.243   3.767   2.861  0.6561 -0.2259  0.1680
 1252ETH      O 5084   3.358   3.700   2.806 -0.3565  0.1629 -0.2558
 1252ETH      H 5085   3.313   3.894   3.025  1.9794 -0.5580  1.0602
 1252ETH     H1 5086   3.264   3.718   3.076 -1.5673 -0.1891 -0.6376
 1252ETH     H2 5087   3.144   3.835   3.038 -0.1461  0.7568  1.3732
 1252ETH     H3 5088   3.159   3.697   2.849  1.2658 -1.0131  0.3913
 1252ETH     H4 5089   3.223   3.857   2.801  0.6457 -0.7231 -0.5829
 1252ETH     H5 5090   3.357   3.613   2.849  3.6521 -0.7668 -1.5862
 1253ETH      C 5091   3.639   3.462   2.232  0.4558 -0.2717 -0.0993
 1253ETH     C1 5092   3.498   3.410   2.207  0.6918  0.0181  0.7704
 1253ETH      O 5093   3.417   3.457   2.316 -0.2095  0.1409  0.0082
 1253ETH      H 5094   3.675   3.400   2.315 -0.3063 -0.8383 -0.1822
 1253ETH     H1 5095   3.623   3.564   2.269 -0.3237 -0.6810  0.7146
 1253ETH     H2 5096   3.693   3.463   2.136  0.0626 -0.9919 -0.3339
 1253ETH     H3 5097   3.453   3.431   2.109  0.9888 -1.3475  0.3077
 1253ETH     H4 5098   3.500   3.300   2.212  0.7186 -0.1869 -2.0744
 1253ETH     H5 5099   3.454   3.420   2.398  1.4334  1.6818  0.0223
 1254ETH      C 5100   2.729   1.218   2.928  0.1880  0.2987 -0.4125
 1254ETH     C1 5101   2.770   1.290   2.796  0.1975  0.2313  0.0448
 1254ETH      O 5102   2.686   1.260   2.682  0.4835  0.3453  0.4244
 1254ETH      H 5103   2.642   1.263   2.978  2.4311  0.8907  3.3569
 1254ETH     H1 5104   2.809   1.211   3.002 -0.1091 -0.2733 -0.1397
 1254ETH     H2 5105   2.706   1.112   2.917  1.2210 -0.1176  1.1721
 1254ETH     H3 5106   2.762   1.398   2.813  3.9745  0.5696  0.6780
 1254ETH     H4 5107   2.877   1.269   2.783  0.3001 -0.9770  2.3264
 1254ETH     H5 5108   2.592   1.255   2.707  0.8429 -2.6525  1.5948
 1255ETH      C 5109   3.494   4.117   0.598 -0.7377 -0.5348  0.4011
 1255ETH     C1 5110   3.579   4.212   0.682 -0.0334 -0.2321 -0.3077
 1255ETH      O 5111   3.704   4.242   0.618  0.4661 -0.3805 -0.1243
 1255ETH      H 5112   3.470   4.162   0.501  0.7498 -1.6223 -0.5276
 1255ETH     H1 5113   3.405   4.089   0.655 -2.1064 -1.3666 -1.9982
 1255ETH     H2 5114   3.545   4.023   0.576  1.6698  0.4869  1.2564
 1255ETH     H3 5115   3.522   4.304   0.701 -0.7016 -0.7131  0.1003
 1255ETH     H4 5116   3.587   4.159   0.778  0.5206  0.2697 -0.0776
 1255ETH     H5 5117   3.678   4.309   0.553 -1.2890  0.3856  1.2888
 1256ETH      C 5118   3.358   3.199   1.070  0.1553  0.0961 -0.2027
 1256ETH     C1 5119   3.313   3.238   1.212  0.2455  0.3421 -0.2647
 1256ETH      O 5120   3.333   3.122   1.298  0.4240 -0.3249 -0.1433
 1256ETH      H 5121   3.284   3.133   1.024 -0.0915  0.4935 -0.3757
 1256ETH     H1 5122   3.458   3.156   1.055  1.0355  1.5689  1.0529
 1256ETH     H2 5123   3.360   3.285   1.003 -1.3136 -2.1829 -3.4141
 1256ETH     H3 5124   3.357   3.332   1.248 -1.8437  2.2968 -2.5519
 1256ETH     H4 5125   3.206   3.260   1.221 -0.1357 -1.4959  0.0565
 1256ETH     H5 5126   3.423   3.085   1.302 -0.2556 -2.2448 -1.2507
 1257ETH      C 5127   2.737   1.374   4.227 -0.4868 -0.2593  0.1183
 1257ETH     C1 5128   2.586   1.353   4.224  0.4373 -0.0040  0.0594
 1257ETH      O 5129   2.558   1.213   4.238  0.2069 -0.3855  0.6049
 1257ETH      H 5130   2.780   1.347   4.324 -3.1009 -0.3836  1.3213
 1257ETH     H1 5131   2.762   1.478   4.207  0.1995 -0.1624  1.3548
 1257ETH     H2 5132   2.785   1.320   4.144 -0.7046 -0.1051 -0.1104
 1257ETH     H3 5133   2.539   1.408   4.307  1.8914  1.3876  0.0121
 1257ETH     H4 5134   2.567   1.395   4.125  1.6191  1.5224  0.4297
 1257ETH     H5 5135   2.462   1.200   4.249  0.0849 -2.7792 -2.1180
 1258ETH      C 5136   0.325   0.369   0.273  0.2740  0.8783  0.2215
 1258ETH     C1 5137   0.221   0.258   0.314  0.8128 -0.1402 -0.7525
 1258ETH      O 5138   0.108   0.268   0.226 -0.2443  0.4735  0.6291
 1258ETH      H 5139   0.422   0.360   0.322 -1.1018 -0.2179  2.9739
 1258ETH     H1 5140   0.288   0.472   0.280 -0.3972  0.5965  0.9795
 1258ETH     H2 5141   0.346   0.356   0.166 -1.4531  0.9726 -0.1649
 1258ETH     H3 5142   0.262   0.158   0.331  1.4522  0.3761  0.8667
 1258ETH     H4 5143   0.183   0.289   0.412  0.1553  1.8271 -1.5691
 1258ETH     H5 5144   0.135   0.251   0.134 -2.2749 -1.7687  0.3533
 1259ETH      C 5145   3.974   1.805   0.253 -0.1803  0.3652 -0.5872
 1259ETH     C1 5146   3.982   1.702   0.138 -0.4787  0.1312 -0.0009
 1259ETH      O 5147   4.008   1.769   0.016  0.2854  0.8350  0.1999
 1259ETH      H 5148   4.030   1.897   0.234  0.0895  0.0952 -1.1240
 1259ETH     H1 5149   3.996   1.768   0.354  2.6240  2.4435 -0.2997
 1259ETH     H2 5150   3.874   1.851   0.253 -0.0449  0.9077  2.6290
 1259ETH     H3 5151   4.063   1.633   0.165  1.3932  1.6639 -1.3658
 1259ETH     H4 5152   3.892   1.639   0.134 -1.7065  1.7246  1.0545
 1259ETH     H5 5153   4.077   1.718  -0.029 -1.0190 -1.2124  0.3983
 1260ETH      C 5154   3.691   1.136   1.394 -0.2564 -0.3320  0.0360
 1260ETH     C1 5155   3.751   1.134   1.542 -0.8884  0.5499 -0.1733
 1260ETH      O 5156   3.687   1.236   1.622  0.6820  0.2041 -0.0148
 1260ETH      H 5157   3.738   1.068   1.322 -0.9700  0.3444 -1.1017
 1260ETH     H1 5158   3.708   1.234   1.349 -4.4437 -0.1079 -1.4790
 1260ETH     H2 5159   3.582   1.128   1.395 -0.1783 -2.1530  2.0510
 1260ETH     H3 5160   3.736   1.033   1.583 -1.9211  1.1013  0.8878
 1260ETH     H4 5161   3.856   1.163   1.541 -0.8322  0.7626  2.6198
 1260ETH     H5 5162   3.739   1.252   1.703 -0.0897  0.1875  0.5062
 1261ETH      C 5163   0.377   1.088   0.873  0.1344  0.0377  0.0748
 1261ETH     C1 5164   0.482   1.083   0.764 -0.6324  0.7884  0.2897
 1261ETH      O 5165   0.533   1.216   0.736  0.1634 -0.3902 -0.3549
 1261ETH      H 5166   0.299   1.157   0.841 -0.2117 -1.4066 -2.3658
 1261ETH     H1 5167   0.417   1.116   0.972 -0.2201 -0.6747  0.4310
 1261ETH     H2 5168   0.333   0.989   0.887 -1.3867  0.4205 -1.6336
 1261ETH     H3 5169   0.561   1.015   0.799 -0.0728  0.4029 -1.6075
 1261ETH     H4 5170   0.437   1.042   0.673  0.1902 -0.8033  0.5611
 1261ETH     H5 5171   0.607   1.209   0.674  0.6674 -0.2959  0.2229
 1262ETH      C 5172   4.134   0.806   4.197  0.2777 -0.4077  0.5588
 1262ETH     C1 5173   4.252   0.766   4.284  0.0757  0.4678 -0.7853
 1262ETH      O 5174   4.361   0.861   4.265  0.1815 -0.4167 -0.3231
 1262ETH      H 5175   4.037   0.761   4.225 -1.1186  0.2374 -2.7653
 1262ETH     H1 5176   4.150   0.786   4.091  0.5898 -3.1973  1.0457
 1262ETH     H2 5177   4.119   0.913   4.212 -0.5861 -0.2961 -0.9248
 1262ETH     H3 5178   4.226   0.772   4.391  2.2683  0.6097 -0.2228
 1262ETH     H4 5179   4.281   0.664   4.259 -2.4501 -0.6153  0.2931
 1262ETH     H5 5180   4.414   0.864   4.347  0.3720 -0.3027 -0.4492
 1263ETH      C 5181   3.233   3.608   1.495  0.9236 -0.0890 -0.1492
 1263ETH     C1 5182   3.349   3.703   1.488 -0.3870  0.5127  0.4664
 1263ETH      O 5183   3.472   3.635   1.533  0.2996  0.1224 -0.3651
 1263ETH      H 5184   3.166   3.629   1.411 -0.2940 -0.4762  0.6935
 1263ETH     H1 5185   3.177   3.623   1.588  2.3978  2.1835  0.4490
 1263ETH     H2 5186   3.257   3.501   1.502  0.6521 -0.0880  1.1292
 1263ETH     H3 5187   3.368   3.722   1.382 -1.4627 -1.7850 -0.2079
 1263ETH     H4 5188   3.333   3.796   1.544  2.3382  0.6810  1.1056
 1263ETH     H5 5189   3.524   3.699   1.585  1.2892 -1.6748  0.9877
 1264ETH      C 5190   1.198   3.571   0.459 -0.3552  0.2200  0.2526
 1264ETH     C1 5191   1.313   3.479   0.452 -0.1946  0.1814  0.2826
 1264ETH      O 5192   1.388   3.506   0.339  0.4131  0.9097  0.1858
 1264ETH      H 5193   1.224   3.674   0.434 -1.1685  0.8533  1.8751
 1264ETH     H1 5194   1.151   3.570   0.558 -1.0126  1.3251 -0.0375
 1264ETH     H2 5195   1.122   3.539   0.386 -3.0198  2.1280  2.0378
 1264ETH     H3 5196   1.376   3.480   0.541  0.7622 -3.8924 -0.1771
 1264ETH     H4 5197   1.271   3.378   0.451  0.9182 -0.3485 -2.4748
 1264ETH     H5 5198   1.462   3.445   0.354 -2.3815 -2.0563  3.6069
 1265ETH      C 5199   0.124   0.283   3.103  0.4361  0.3695 -0.4996
 1265ETH     C1 5200   0.264   0.253   3.056 -0.4480  0.3889 -0.0015
 1265ETH      O 5201   0.261   0.123   2.998 -0.7251 -0.0254  0.4616
 1265ETH      H 5202   0.117   0.382   3.150  0.5407 -0.1110  0.5493
 1265ETH     H1 5203   0.086   0.205   3.170  2.2141  0.2380  0.4036
 1265ETH     H2 5204   0.056   0.295   3.018  0.8348 -0.1490 -0.8930
 1265ETH     H3 5205   0.287   0.328   2.980 -1.5136 -1.9049 -2.7820
 1265ETH     H4 5206   0.345   0.257   3.129  1.9152 -0.5099 -2.3987
 1265ETH     H5 5207   0.350   0.088   2.980 -1.0900 -2.1165  2.2792
 1266ETH      C 5208   0.174   4.240   1.310  0.1168 -0.2534 -1.0440
 1266ETH     C1 5209   0.084   4.150   1.406  0.1988 -0.6325  0.0017
 1266ETH      O 5210   0.111   4.007   1.372  0.1161 -0.3076  0.5497
 1266ETH      H 5211   0.183   4.344   1.343 -1.1608 -1.0664  2.2728
 1266ETH     H1 5212   0.133   4.232   1.208 -0.1815  0.1753 -0.9600
 1266ETH     H2 5213   0.277   4.203   1.306  0.4479  0.6533 -1.1107
 1266ETH     H3 5214   0.104   4.177   1.511 -0.4001 -0.1280 -0.0040
 1266ETH     H4 5215  -0.024   4.166   1.391 -0.0613 -1.0376  1.2784
 1266ETH     H5 5216   0.035   3.983   1.317  0.8891  0.4179 -0.9101
 1267ETH      C 5217   2.588   0.049   3.171  0.6786  0.1133  0.3503
 1267ETH     C1 5218   2.607  -0.027   3.309  0.4473 -0.1354  0.4904
 1267ETH      O 5219   2.658   0.065   3.409 -0.3356 -0.3620  0.2171
 1267ETH      H 5220   2.581   0.157   3.188  2.1841  0.1413  1.0104
 1267ETH     H1 5221   2.501   0.030   3.108  0.1351  2.2360  0.4037
 1267ETH     H2 5222   2.680   0.034   3.113 -1.0207 -0.0909 -2.4231
 1267ETH     H3 5223   2.505  -0.057   3.337 -0.9666  3.5288 -0.1300
 1267ETH     H4 5224   2.673  -0.114   3.298 -1.3730 -1.6150  0.6801
 1267ETH     H5 5225   2.730   0.111   3.363 -2.0924  2.9322  0.3931
 1268ETH      C 5226   2.993   1.627   0.480  0.0932  0.0194 -0.3545
 1268ETH     C1 5227   3.058   1.767   0.491  0.2433  0.2519  0.7092
 1268ETH      O 5228   2.999   1.854   0.593  0.8803  0.6350 -0.6213
 1268ETH      H 5229   3.009   1.564   0.567  0.3770  0.5359 -0.0238
 1268ETH     H1 5230   3.006   1.571   0.386  2.9926  0.9995 -0.6506
 1268ETH     H2 5231   2.890   1.661   0.491  0.5605  1.2546  0.4791
 1268ETH     H3 5232   3.164   1.745   0.507 -0.0878 -1.6430  0.5494
 1268ETH     H4 5233   3.056   1.819   0.395 -0.0641 -0.0674  0.5429
 1268ETH     H5 5234   2.945   1.797   0.651  2.8178  1.5515  2.3243
 1269ETH      C 5235   2.165   0.001   4.091 -0.2323 -0.4868  0.7650
 1269ETH     C1 5236   2.019  -0.018   4.055 -0.2144  0.8250 -0.1263
 1269ETH      O 5237   1.944  -0.038   4.176  0.2070  0.2520  0.3272
 1269ETH      H 5238   2.233   0.019   4.008 -0.8201  1.2000  0.6147
 1269ETH     H1 5239   2.204  -0.084   4.148  2.6378 -0.8360 -1.5114
 1269ETH     H2 5240   2.165   0.092   4.153  2.2497  0.5550 -0.6317
 1269ETH     H3 5241   1.992   0.068   3.993 -0.4298  0.7986 -0.0674
 1269ETH     H4 5242   2.015  -0.110   3.995 -2.2272 -0.2875  1.5934
 1269ETH     H5 5243   1.980  -0.119   4.215  0.2731  0.6972  1.2257
 1270ETH      C 5244   2.877   3.022   2.843  0.3697 -0.5620 -0.2089
 1270ETH     C1 5245   2.981   3.042   2.954  0.0273 -0.0764 -0.3924
 1270ETH      O 5246   2.920   3.135   3.043  0.2056 -1.1696  0.0216
 1270ETH      H 5247   2.915   2.951   2.769  2.1068  0.2578 -0.1454
 1270ETH     H1 5248   2.846   3.118   2.801 -0.4943  0.1553  1.9178
 1270ETH     H2 5249   2.783   2.988   2.888  0.8028  0.1471  1.3223
 1270ETH     H3 5250   2.994   2.942   2.997  0.4078  0.0896 -0.1095
 1270ETH     H4 5251   3.072   3.087   2.911  1.6233 -0.4880  2.2820
 1270ETH     H5 5252   2.840   3.090   3.074 -0.3973  0.8030  1.4874
 1271ETH      C 5253   1.540   0.218   2.628 -0.0626  0.3971  0.1720
 1271ETH     C1 5254   1.651   0.115   2.636 -0.5622  0.2347  0.1395
 1271ETH      O 5255   1.623   0.004   2.542 -0.3064 -0.0174  0.1833
 1271ETH      H 5256   1.491   0.228   2.531  0.3686 -0.6639 -0.1730
 1271ETH     H1 5257   1.588   0.311   2.661 -1.4192  0.5554  1.8719
 1271ETH     H2 5258   1.472   0.201   2.712 -1.3107 -0.6935 -1.0169
 1271ETH     H3 5259   1.738   0.170   2.597  0.5352 -1.2171  0.4575
 1271ETH     H4 5260   1.680   0.090   2.739  1.3496  1.8724  0.0627
 1271ETH     H5 5261   1.539  -0.034   2.574  0.2239 -0.9658  0.5123
 1272ETH      C 5262   2.140   2.138   1.340  0.4772  0.2247 -0.1178
 1272ETH     C1 5263   2.218   2.183   1.207  0.6048  0.3147 -0.1295
 1272ETH      O 5264   2.133   2.253   1.114  0.1686 -0.2351  0.2073
 1272ETH      H 5265   2.149   2.218   1.414  2.0960 -2.4174  2.7900
 1272ETH     H1 5266   2.178   2.043   1.379 -0.4009 -0.4505 -0.8656
 1272ETH     H2 5267   2.032   2.121   1.338  0.6153 -1.1112  1.5387
 1272ETH     H3 5268   2.301   2.244   1.244 -0.2448  0.8004  1.0196
 1272ETH     H4 5269   2.258   2.091   1.162  2.2083  1.3260 -0.8668
 1272ETH     H5 5270   2.086   2.315   1.173 -2.3896 -1.8516  0.0417
 1273ETH      C 5271   0.206   1.186   1.932  0.4104 -0.0381 -0.7572
 1273ETH     C1 5272   0.182   1.113   1.799 -0.1881  0.0136  0.3693
 1273ETH      O 5273   0.144   0.980   1.830 -0.2426 -0.2922  0.0995
 1273ETH      H 5274   0.188   1.294   1.924 -0.2056 -0.1576 -1.0314
 1273ETH     H1 5275   0.304   1.161   1.976  0.4947  1.6137  0.0791
 1273ETH     H2 5276   0.136   1.152   2.009 -0.1518 -1.2631 -1.7787
 1273ETH     H3 5277   0.111   1.156   1.727  0.9665 -1.4277 -1.7487
 1273ETH     H4 5278   0.274   1.112   1.740 -1.6293 -0.3693 -2.0294
 1273ETH     H5 5279   0.188   0.958   1.914  2.8482  0.0709 -1.2913
 1274ETH      C 5280   3.689   3.036   2.129  0.0166  0.1799 -0.0132
 1274ETH     C1 5281   3.659   3.041   2.278  0.6971 -0.0818 -0.3221
 1274ETH      O 5282   3.541   2.972   2.308  0.2626 -0.4861  0.0190
 1274ETH      H 5283   3.787   3.079   2.105 -0.0311  0.6170  0.5571
 1274ETH     H1 5284   3.615   3.086   2.066 -0.6872 -0.8824 -0.0497
 1274ETH     H2 5285   3.705   2.931   2.099 -2.6984 -0.7833  1.5077
 1274ETH     H3 5286   3.747   3.000   2.329  1.0030  1.4275  0.4106
 1274ETH     H4 5287   3.671   3.145   2.308  2.9881 -0.6916  1.1437
 1274ETH     H5 5288   3.558   2.882   2.275  1.6593  0.3096 -1.6279
 1275ETH      C 5289   0.237   1.807   1.029  0.2838 -0.2199  0.0503
 1275ETH     C1 5290   0.168   1.680   1.004  0.2385  0.2727 -0.7837
 1275ETH      O 5291   0.240   1.572   1.056  0.7912  0.3945 -0.0503
 1275ETH      H 5292   0.338   1.808   0.987 -0.1978  0.6170 -1.1492
 1275ETH     H1 5293   0.243   1.842   1.133  0.4665 -0.0593 -0.0130
 1275ETH     H2 5294   0.169   1.884   0.990 -2.3598 -1.7200  1.3737
 1275ETH     H3 5295   0.062   1.680   1.032 -0.0226  0.8635 -1.7184
 1275ETH     H4 5296   0.158   1.674   0.895  0.4478 -0.0308 -0.7907
 1275ETH     H5 5297   0.332   1.568   1.025  0.5703  0.6232 -0.7322
 1276ETH      C 5298   3.208   0.281   2.400 -0.7763 -0.5371  0.0429
 1276ETH     C1 5299   3.097   0.368   2.457 -0.0699  0.2538 -0.3514
 1276ETH      O 5300   3.127   0.504   2.452 -0.2467 -0.3471  0.4541
 1276ETH      H 5301   3.217   0.189   2.460  1.0634 -1.1010 -1.0209
 1276ETH     H1 5302   3.302   0.335   2.417 -1.7790  1.1437  0.4894
 1276ETH     H2 5303   3.194   0.268   2.293  1.3249  1.4172 -0.5581
 1276ETH     H3 5304   3.007   0.353   2.396  0.4976 -3.1944 -0.5452
 1276ETH     H4 5305   3.087   0.343   2.563  1.8456  2.2210  0.3813
 1276ETH     H5 5306   3.108   0.532   2.361  0.9113 -2.2697 -0.4400
 1277ETH      C 5307   0.327   0.018   3.336 -0.3583 -0.0357  0.6943
 1277ETH     C1 5308   0.284  -0.050   3.456  0.5641 -0.1081 -0.2980
 1277ETH      O 5309   0.353  -0.179   3.463  0.0374 -0.3375 -0.0604
 1277ETH      H 5310   0.333  -0.046   3.247  1.2020 -0.8257  1.3205
 1277ETH     H1 5311   0.429   0.056   3.348 -0.5074  0.4995  0.3111
 1277ETH     H2 5312   0.263   0.097   3.296  0.1477  0.1737  0.2880
 1277ETH     H3 5313   0.312   0.006   3.546  2.5158 -1.1834 -0.1935
 1277ETH     H4 5314   0.176  -0.069   3.461  0.7722 -1.0845  0.9794
 1277ETH     H5 5315   0.301  -0.236   3.402  0.2128  2.1073 -2.6927
 1278ETH      C 5316   0.427   0.048   2.221  0.6498  0.1662  0.2427
 1278ETH     C1 5317   0.534  -0.067   2.224 -0.0512  0.7982  0.0601
 1278ETH      O 5318   0.637  -0.033   2.320  0.4913  0.3073  0.6650
 1278ETH      H 5319   0.366   0.029   2.133 -0.5789 -0.3056  1.1666
 1278ETH     H1 5320   0.468   0.148   2.204  1.4727 -0.1254  0.4272
 1278ETH     H2 5321   0.366   0.047   2.312  0.2529  2.3051  0.0519
 1278ETH     H3 5322   0.480  -0.159   2.249 -0.2057  0.3388 -1.7929
 1278ETH     H4 5323   0.575  -0.091   2.125 -1.7260  0.2370 -0.5317
 1278ETH     H5 5324   0.658  -0.117   2.364  0.1656  0.0141  0.2742
 1279ETH      C 5325   0.353   1.296   0.470  0.1101 -0.6401 -0.0779
 1279ETH     C1 5326   0.427   1.250   0.346  0.0297 -0.3796  0.2341
 1279ETH      O 5327   0.547   1.178   0.374 -0.1486 -0.1576  0.2409
 1279ETH      H 5328   0.312   1.210   0.524  2.0286 -1.0485  0.8085
 1279ETH     H1 5329   0.280   1.375   0.445  1.7759  0.7259 -0.7890
 1279ETH     H2 5330   0.426   1.352   0.529  1.1606 -0.5832 -1.3897
 1279ETH     H3 5331   0.353   1.201   0.282 -1.3389  3.8112 -1.7235
 1279ETH     H4 5332   0.460   1.336   0.288 -3.6723  0.1126 -1.4318
 1279ETH     H5 5333   0.613   1.249   0.375 -1.5721  1.3256 -2.0935
 1280ETH      C 5334   0.027   3.437   3.814 -0.2935 -1.0183  0.2177
 1280ETH     C1 5335  -0.045   3.364   3.697 -0.2039  0.1575  0.2380
 1280ETH      O 5336  -0.167   3.293   3.729 -0.0531 -0.6752 -0.1330
 1280ETH      H 5337   0.110   3.486   3.762  0.5272 -1.5015  1.0283
 1280ETH     H1 5338   0.076   3.369   3.885  2.7537  0.0842 -0.6843
 1280ETH     H2 5339  -0.034   3.511   3.867  1.5674  1.2113 -0.5768
 1280ETH     H3 5340  -0.074   3.443   3.627 -0.5698  1.6994  2.0282
 1280ETH     H4 5341   0.037   3.298   3.669  0.9314  1.6584 -0.0813
 1280ETH     H5 5342  -0.219   3.307   3.648  1.5475 -0.4013 -1.1458
 1281ETH      C 5343   3.642   1.527   1.243  0.6032  0.1853  0.5979
 1281ETH     C1 5344   3.652   1.669   1.197 -0.2752  0.5306 -0.5936
 1281ETH      O 5345   3.703   1.745   1.307 -0.9346 -0.1131 -0.1139
 1281ETH      H 5346   3.593   1.515   1.340  0.6616 -0.4147  0.5589
 1281ETH     H1 5347   3.744   1.489   1.252  0.6466  0.7325  2.7537
 1281ETH     H2 5348   3.587   1.471   1.165 -1.5915  2.4008  0.4330
 1281ETH     H3 5349   3.725   1.673   1.116 -0.3723  2.9832 -0.6328
 1281ETH     H4 5350   3.559   1.719   1.166 -0.2984  0.6329 -0.3553
 1281ETH     H5 5351   3.637   1.772   1.373 -0.4563  0.5320  0.1125
 1282ETH      C 5352   4.077   1.171   3.934  0.4767  0.3997  0.8439
 1282ETH     C1 5353   4.216   1.116   3.898 -0.4724 -0.8351  0.4390
 1282ETH      O 5354   4.270   1.161   3.774 -0.1984 -0.2982  0.0208
 1282ETH      H 5355   3.996   1.127   3.875  0.5973 -1.3272  1.8972
 1282ETH     H1 5356   4.076   1.279   3.916  0.7723  0.1045 -1.1863
 1282ETH     H2 5357   4.045   1.163   4.039 -1.0333  1.0453  0.4518
 1282ETH     H3 5358   4.275   1.172   3.972 -0.2497 -0.4532 -0.0233
 1282ETH     H4 5359   4.227   1.010   3.923 -2.3159 -1.3941 -0.9204
 1282ETH     H5 5360   4.228   1.111   3.702 -0.2224 -0.7262  0.3312
 1283ETH      C 5361   1.674   2.237   3.221  0.4760  0.0921  0.0899
 1283ETH     C1 5362   1.646   2.108   3.299 -0.2973  0.1796 -0.2401
 1283ETH      O 5363   1.664   1.995   3.216  0.7370 -0.1291  0.1906
 1283ETH      H 5364   1.774   2.228   3.177  0.2342 -2.6874 -0.0699
 1283ETH     H1 5365   1.681   2.320   3.292 -0.6097 -0.4815  0.9030
 1283ETH     H2 5366   1.604   2.261   3.140  0.1316 -1.4617 -0.1113
 1283ETH     H3 5367   1.720   2.099   3.379  0.7486  1.4072 -1.0411
 1283ETH     H4 5368   1.550   2.108   3.352 -0.8593  2.4892 -1.1631
 1283ETH     H5 5369   1.695   1.916   3.263 -0.5604 -1.5309 -1.1677
 1284ETH      C 5370   0.424   2.817   2.407  0.4275  0.2395  0.5656
 1284ETH     C1 5371   0.482   2.827   2.263  0.1215 -0.1781 -0.2165
 1284ETH      O 5372   0.373   2.865   2.180  0.4163  0.0802 -0.2381
 1284ETH      H 5373   0.329   2.762   2.411  1.0519 -0.8315  1.6697
 1284ETH     H1 5374   0.411   2.915   2.455  1.3794  0.5903  0.1324
 1284ETH     H2 5375   0.491   2.751   2.464  1.0204 -0.8363 -1.2821
 1284ETH     H3 5376   0.562   2.902   2.263 -0.5141  0.5253  1.0362
 1284ETH     H4 5377   0.522   2.732   2.225 -0.9397 -0.7990  0.1586
 1284ETH     H5 5378   0.337   2.950   2.210 -1.8268  0.6845 -4.0806
 1285ETH      C 5379   0.474   0.146   3.691 -0.4654  0.6205 -0.9942
 1285ETH     C1 5380   0.548   0.232   3.800 -0.3394 -0.0772  0.0611
 1285ETH      O 5381   0.634   0.326   3.739 -0.3711 -0.2532 -0.2460
 1285ETH      H 5382   0.403   0.211   3.638 -3.0579 -0.7113  0.6387
 1285ETH     H1 5383   0.409   0.077   3.746 -0.3459  0.8880 -0.5105
 1285ETH     H2 5384   0.547   0.088   3.633  0.3957  1.5147 -0.8284
 1285ETH     H3 5385   0.472   0.282   3.860 -0.1775 -1.0571  1.1040
 1285ETH     H4 5386   0.600   0.163   3.867 -0.6019 -3.0868 -2.5984
 1285ETH     H5 5387   0.573   0.394   3.704 -0.4046  0.1015  0.4746
 1286ETH      C 5388   1.605   0.605   0.108  0.8968  0.7729 -0.2337
 1286ETH     C1 5389   1.498   0.717   0.130  0.0643 -0.3451  0.1450
 1286ETH      O 5390   1.441   0.758   0.008  0.4185 -0.0247  0.0848
 1286ETH      H 5391   1.642   0.570   0.205 -2.7977  2.1934  1.8915
 1286ETH     H1 5392   1.691   0.641   0.051  1.5974  1.2601  1.0912
 1286ETH     H2 5393   1.573   0.518   0.049 -0.2375 -0.0593  1.5222
 1286ETH     H3 5394   1.421   0.675   0.195  0.9657  0.3599  1.7211
 1286ETH     H4 5395   1.535   0.808   0.179 -0.1736 -0.2053  0.0660
 1286ETH     H5 5396   1.345   0.770   0.016  0.6973  1.5967  1.3425
 1287ETH      C 5397   3.288   0.773   0.594 -0.6562 -0.0124 -0.2169
 1287ETH     C1 5398   3.278   0.694   0.725  0.1671 -0.3040 -0.6502
 1287ETH      O 5399   3.212   0.573   0.694 -0.1361 -0.2289 -0.0890
 1287ETH      H 5400   3.325   0.724   0.504  2.0027  2.0448 -0.3890
 1287ETH     H1 5401   3.360   0.853   0.618  0.4004 -0.5837 -1.3627
 1287ETH     H2 5402   3.190   0.814   0.569 -0.0832  1.1247 -0.7171
 1287ETH     H3 5403   3.380   0.671   0.761  0.9432 -2.5075 -3.8128
 1287ETH     H4 5404   3.225   0.757   0.797  0.6148  2.0194 -2.2577
 1287ETH     H5 5405   3.118   0.598   0.688 -0.0806 -0.3007 -3.0285
 1288ETH      C 5406   1.472   3.500   1.503 -0.0436  0.1206 -0.2244
 1288ETH     C1 5407   1.587   3.606   1.490 -0.5826  0.1207 -0.3547
 1288ETH      O 5408   1.708   3.546   1.436 -0.4469 -0.1704 -0.3390
 1288ETH      H 5409   1.496   3.433   1.586  2.0382  2.2016  0.9389
 1288ETH     H1 5410   1.453   3.453   1.405  0.1730 -0.7721  0.1543
 1288ETH     H2 5411   1.390   3.566   1.533 -0.4149  0.3266 -1.6069
 1288ETH     H3 5412   1.555   3.696   1.437 -0.8829 -0.7740 -1.7463
 1288ETH     H4 5413   1.595   3.638   1.594 -0.6169  0.9435 -0.5983
 1288ETH     H5 5414   1.681   3.488   1.363 -0.0113 -1.0790  0.2021
 1289ETH      C 5415   3.918   1.324   0.486  0.2131 -0.3844 -0.1733
 1289ETH     C1 5416   3.853   1.435   0.420  1.1965 -0.5282 -1.0694
 1289ETH      O 5417   3.796   1.519   0.517 -0.2856 -0.2789 -0.2716
 1289ETH      H 5418   4.003   1.290   0.426  1.1263  0.1426  0.7824
 1289ETH     H1 5419   3.851   1.248   0.528 -1.6657  0.8946 -0.7060
 1289ETH     H2 5420   3.973   1.372   0.568  0.1065  1.0241 -0.8875
 1289ETH     H3 5421   3.920   1.492   0.355  0.4036  1.9189  0.1690
 1289ETH     H4 5422   3.770   1.403   0.355 -0.0425 -0.6094  0.4924
 1289ETH     H5 5423   3.866   1.549   0.577 -0.8073  2.0812 -0.7397
 1290ETH      C 5424   1.021   2.542   1.541 -0.1511  0.2749  0.2092
 1290ETH     C1 5425   1.065   2.401   1.569 -0.4442  0.5681  0.1908
 1290ETH      O 5426   1.079   2.322   1.445  0.0250  0.3719  0.0222
 1290ETH      H 5427   1.105   2.590   1.489 -1.0570  1.1821 -0.4412
 1290ETH     H1 5428   1.011   2.607   1.628 -1.6801  1.7996 -1.0507
 1290ETH     H2 5429   0.932   2.555   1.478  0.3326  0.2244 -0.5020
 1290ETH     H3 5430   1.160   2.420   1.621 -0.9241  2.4554  0.4648
 1290ETH     H4 5431   0.998   2.356   1.643 -0.6176  1.9836  0.9370
 1290ETH     H5 5432   1.124   2.237   1.461  1.9856  1.3801  0.1662
 1291ETH      C 5433   3.870   0.662   3.772 -0.0888 -0.2454 -0.1166
 1291ETH     C1 5434   3.863   0.630   3.925 -0.2042  0.0781  0.4192
 1291ETH      O 5435   3.801   0.749   3.986  0.0829  0.0634  0.1629
 1291ETH      H 5436   3.772   0.637   3.729 -0.3726 -0.3486  0.5744
 1291ETH     H1 5437   3.935   0.600   3.709  0.4360  0.3885 -0.2093
 1291ETH     H2 5438   3.899   0.765   3.751  2.6788 -1.0281 -0.4974
 1291ETH     H3 5439   3.814   0.533   3.940 -1.6385  0.3443 -1.9770
 1291ETH     H4 5440   3.968   0.638   3.956  0.0914  1.3612 -0.8264
 1291ETH     H5 5441   3.716   0.771   3.945  0.5243  1.6542  0.0255
 1292ETH      C 5442   3.479   3.825   2.093  0.2805  0.0320 -0.5119
 1292ETH     C1 5443   3.414   3.713   2.021 -0.3773  0.0231 -0.1069
 1292ETH      O 5444   3.496   3.684   1.905  0.3403  0.2580 -0.3770
 1292ETH      H 5445   3.548   3.871   2.021  1.2548 -2.3562 -1.1805
 1292ETH     H1 5446   3.540   3.789   2.176  0.9989  0.0471 -1.0213
 1292ETH     H2 5447   3.409   3.903   2.125  0.1424 -0.8093  1.3109
 1292ETH     H3 5448   3.397   3.629   2.089 -1.0773 -0.5279 -0.9430
 1292ETH     H4 5449   3.313   3.742   1.988 -0.0628  2.1441  0.6048
 1292ETH     H5 5450   3.470   3.598   1.867  2.7327  0.1015 -1.8808
 1293ETH      C 5451   0.467   2.059   1.667 -0.4286 -0.1829  0.6027
 1293ETH     C1 5452   0.378   2.101   1.787  0.4286  0.0064  0.1057
 1293ETH      O 5453   0.455   2.126   1.903  0.3094  0.1338 -0.3792
 1293ETH      H 5454   0.495   1.955   1.687 -0.2150 -0.2094  0.1618
 1293ETH     H1 5455   0.559   2.114   1.647 -0.8171 -0.0238 -0.9055
 1293ETH     H2 5456   0.414   2.067   1.571  2.4235  1.1036 -0.9802
 1293ETH     H3 5457   0.309   2.184   1.767  0.8229  0.4046  0.3891
 1293ETH     H4 5458   0.311   2.017   1.808  0.1694  0.4338  1.0062
 1293ETH     H5 5459   0.399   2.115   1.982  0.4102  0.0552 -0.3194
 1294ETH      C 5460   2.063   3.468   2.154 -0.9722 -0.1028 -0.1461
 1294ETH     C1 5461   2.006   3.556   2.267 -0.9559 -0.5779  0.2222
 1294ETH      O 5462   1.889   3.629   2.215 -0.0186 -0.2014 -0.2009
 1294ETH      H 5463   2.078   3.533   2.067 -2.5390  2.9780  1.6933
 1294ETH     H1 5464   2.004   3.378   2.132  0.5117 -1.2309  0.3519
 1294ETH     H2 5465   2.160   3.433   2.191 -1.1910  0.1216  0.6585
 1294ETH     H3 5466   1.969   3.483   2.340 -0.2825 -0.7081  0.4337
 1294ETH     H4 5467   2.081   3.623   2.311 -0.6474 -1.5319  1.1729
 1294ETH     H5 5468   1.909   3.723   2.226  0.2620 -0.0241 -1.9582
 1295ETH      C 5469   1.748   0.260   0.179 -0.2916  0.0316  0.1391
 1295ETH     C1 5470   1.853   0.267   0.068 -0.2134  0.3033  0.3107
 1295ETH      O 5471   1.965   0.180   0.102 -0.1448  0.5162  0.3049
 1295ETH      H 5472   1.794   0.274   0.278  0.6141 -1.4170 -0.0452
 1295ETH     H1 5473   1.715   0.155   0.178  0.2746 -0.1794  1.3189
 1295ETH     H2 5474   1.659   0.318   0.155  0.0139 -0.5539 -2.7813
 1295ETH     H3 5475   1.810   0.254  -0.033 -1.6560 -0.3524  0.9866
 1295ETH     H4 5476   1.896   0.368   0.073  1.2934 -0.3476  0.8828
 1295ETH     H5 5477   1.972   0.108   0.037  1.9891 -1.6391  2.7374
 1296ETH      C 5478   0.815   0.335   0.366  0.1726  0.2485 -0.4805
 1296ETH     C1 5479   0.925   0.379   0.260 -0.0766  0.2541 -0.6363
 1296ETH      O 5480   0.857   0.398   0.136  0.6424  0.1479 -0.3702
 1296ETH      H 5481   0.739   0.411   0.389  0.1255  0.2565 -0.6631
 1296ETH     H1 5482   0.863   0.322   0.464  0.9281 -2.0277 -1.1004
 1296ETH     H2 5483   0.769   0.238   0.344  1.5606 -0.2854 -1.1634
 1296ETH     H3 5484   0.963   0.471   0.306  4.3426 -2.1208  1.1359
 1296ETH     H4 5485   1.011   0.311   0.252 -0.4397 -0.2525 -0.3359
 1296ETH     H5 5486   0.924   0.395   0.066 -0.3369 -0.1026 -1.3192
 1297ETH      C 5487   2.765   0.265   3.752 -0.8536  0.1662 -0.5578
 1297ETH     C1 5488   2.701   0.206   3.877 -0.4196 -0.7897  0.2551
 1297ETH      O 5489   2.803   0.172   3.972  0.4775 -0.0055  0.1711
 1297ETH      H 5490   2.829   0.351   3.776  0.3424 -0.6368 -0.7717
 1297ETH     H1 5491   2.691   0.310   3.684 -2.7747 -0.1703  1.2153
 1297ETH     H2 5492   2.827   0.195   3.695  0.4405  1.9360 -1.4143
 1297ETH     H3 5493   2.639   0.291   3.910  0.4668  0.7670 -1.8289
 1297ETH     H4 5494   2.633   0.126   3.846 -1.4470  0.3589 -0.5767
 1297ETH     H5 5495   2.790   0.078   3.997  1.8120  0.1774  1.8234
 1298ETH      C 5496   1.568   0.049   2.996 -0.1964 -0.5351 -0.1815
 1298ETH     C1 5497   1.593  -0.103   3.016  0.0639 -0.0418  0.5895
 1298ETH      O 5498   1.481  -0.172   3.078 -0.4855  0.0879 -0.5725
 1298ETH      H 5499   1.532   0.088   3.092  0.5895 -0.7978  0.2278
 1298ETH     H1 5500   1.493   0.063   2.917  3.0172  2.6029 -2.9596
 1298ETH     H2 5501   1.654   0.107   2.962  0.7153 -0.8816  1.3909
 1298ETH     H3 5502   1.603  -0.143   2.914 -0.5593 -0.3804  0.6581
 1298ETH     H4 5503   1.684  -0.118   3.075  0.6046  0.1929 -0.1591
 1298ETH     H5 5504   1.484  -0.263   3.043  0.7541  0.7258 -2.2552
 1299ETH      C 5505   1.277   2.661   2.968  0.2915  0.3851  0.3982
 1299ETH     C1 5506   1.431   2.658   2.968 -0.3701  0.1456  0.4472
 1299ETH      O 5507   1.469   2.581   2.854  0.0530  0.0115  0.3043
 1299ETH      H 5508   1.236   2.708   3.058 -2.7373  1.7307 -1.5315
 1299ETH     H1 5509   1.238   2.558   2.966  0.1723  0.4457 -1.3426
 1299ETH     H2 5510   1.232   2.711   2.882 -2.9729  0.2753  1.8984
 1299ETH     H3 5511   1.474   2.759   2.969 -1.6355  0.7064  0.7432
 1299ETH     H4 5512   1.472   2.612   3.059 -0.1160 -0.9879 -0.2234
 1299ETH     H5 5513   1.398   2.522   2.824  2.1867 -2.0413 -1.0991
 1300ETH      C 5514   0.776   0.479   1.627 -0.0538 -0.2403  0.0128
 1300ETH     C1 5515   0.892   0.542   1.693  0.3652 -0.4289  0.1356
 1300ETH      O 5516   0.887   0.528   1.834  0.3227  0.1008 -0.8092
 1300ETH      H 5517   0.748   0.384   1.674  0.3805  0.2280  1.2547
 1300ETH     H1 5518   0.811   0.452   1.527  0.9988 -0.9720  0.5590
 1300ETH     H2 5519   0.693   0.551   1.623  1.1333  1.5287  3.2230
 1300ETH     H3 5520   0.982   0.494   1.651  0.3281  1.5288 -2.4459
 1300ETH     H4 5521   0.885   0.649   1.672  0.5955 -0.4173  0.1190
 1300ETH     H5 5522   0.975   0.504   1.870  0.0373  1.7120  1.1315
 1301ETH      C 5523   2.532   3.247   2.814  0.5067  0.7738 -0.0706
 1301ETH     C1 5524   2.403   3.297   2.879  0.3242  0.0700  0.0797
 1301ETH      O 5525   2.379   3.230   3.001 -0.2886  0.0239 -0.2688
 1301ETH      H 5526   2.620   3.252   2.878  1.0880 -0.9366 -0.6726
 1301ETH     H1 5527   2.564   3.304   2.726  0.9646 -1.3447 -1.3352
 1301ETH     H2 5528   2.527   3.144   2.777  1.2501  0.8930 -0.5257
 1301ETH     H3 5529   2.410   3.405   2.895 -0.6462  0.0974  0.3560
 1301ETH     H4 5530   2.326   3.281   2.802  0.3418  1.7652 -0.3256
 1301ETH     H5 5531   2.298   3.177   2.989 -0.8409  0.7722  0.1263
 1302ETH      C 5532   1.524   4.203   4.084 -0.5084  0.3287 -0.2183
 1302ETH     C1 5533   1.613   4.133   3.981 -0.0701 -0.3243  0.1122
 1302ETH      O 5534   1.575   3.997   3.968 -0.2303 -0.1672 -0.5071
 1302ETH      H 5535   1.547   4.310   4.089 -0.5445  0.4197 -1.6243
 1302ETH     H1 5536   1.549   4.161   4.182  1.1465  0.5591 -0.5274
 1302ETH     H2 5537   1.417   4.186   4.067 -0.4647 -0.5305  0.2981
 1302ETH     H3 5538   1.611   4.185   3.884  0.6023  1.3805  0.9760
 1302ETH     H4 5539   1.715   4.141   4.020 -0.7506 -0.0418  1.9129
 1302ETH     H5 5540   1.649   3.942   4.000  1.1072  0.4209 -2.3930
 1303ETH      C 5541   3.298   1.505   0.461 -1.1559  0.0388 -0.0016
 1303ETH     C1 5542   3.452   1.476   0.461 -0.2947  0.4626 -0.1812
 1303ETH      O 5543   3.528   1.597   0.483 -0.0404  0.0014  0.1162
 1303ETH      H 5544   3.228   1.422   0.454  0.5327 -1.5749  1.1958
 1303ETH     H1 5545   3.283   1.570   0.373 -0.2894  0.9374  0.4863
 1303ETH     H2 5546   3.269   1.564   0.548 -0.8897  1.5231 -0.8756
 1303ETH     H3 5547   3.481   1.406   0.541  0.3576  0.3647 -0.4972
 1303ETH     H4 5548   3.473   1.424   0.367  1.6058 -2.2620  1.5955
 1303ETH     H5 5549   3.620   1.566   0.478  0.6914  2.0637  0.0082
 1304ETH      C 5550   1.701   3.375   1.819 -0.0084  0.0058  0.6341
 1304ETH     C1 5551   1.824   3.389   1.910 -0.2824  0.2451 -0.0701
 1304ETH      O 5552   1.929   3.310   1.854  0.3533 -1.4683  0.2254
 1304ETH      H 5553   1.721   3.407   1.715 -1.1569  0.0455  0.4176
 1304ETH     H1 5554   1.627   3.445   1.859  1.4972  2.9111 -1.2645
 1304ETH     H2 5555   1.671   3.270   1.813  1.2376 -0.3080 -2.8895
 1304ETH     H3 5556   1.845   3.496   1.918 -1.8049  0.5462  0.0654
 1304ETH     H4 5557   1.802   3.351   2.010  0.3972 -2.2417 -0.7742
 1304ETH     H5 5558   1.999   3.307   1.921  3.5102 -0.9788 -2.7864
 1305ETH      C 5559   2.090   1.495   0.757  1.0437 -0.2088  0.2654
 1305ETH     C1 5560   2.026   1.464   0.614 -0.1681 -0.2118  0.3817
 1305ETH      O 5561   1.911   1.540   0.596  0.3533 -0.3715  0.4413
 1305ETH      H 5562   2.137   1.594   0.767  0.8530  0.0859 -1.4261
 1305ETH     H1 5563   2.164   1.417   0.776  0.1413 -1.2369 -0.3299
 1305ETH     H2 5564   2.006   1.491   0.828  0.0392 -0.3646 -0.9028
 1305ETH     H3 5565   2.102   1.497   0.541  0.2902  0.6561  1.2245
 1305ETH     H4 5566   1.996   1.359   0.604  0.8334 -0.2723 -3.5441
 1305ETH     H5 5567   1.928   1.635   0.611  0.3518 -0.2926 -0.0639
 1306ETH      C 5568   1.309   3.695   3.418  0.4530  0.7920  0.0959
 1306ETH     C1 5569   1.352   3.558   3.380  0.3802 -0.0835  0.0982
 1306ETH      O 5570   1.251   3.457   3.416  1.0607 -0.0185  0.6710
 1306ETH      H 5571   1.395   3.761   3.433  0.7380  0.4182  0.1055
 1306ETH     H1 5572   1.253   3.711   3.511  2.5650  1.1117  1.3773
 1306ETH     H2 5573   1.261   3.739   3.330 -0.7562  0.2706  0.4670
 1306ETH     H3 5574   1.391   3.546   3.278 -0.7722 -0.6594 -0.2851
 1306ETH     H4 5575   1.438   3.541   3.447  1.6802  0.9503 -1.2355
 1306ETH     H5 5576   1.258   3.447   3.513 -0.6734 -0.1983  0.8040
 1307ETH      C 5577   3.897   2.476   0.906 -0.2513  0.4180 -0.4137
 1307ETH     C1 5578   3.763   2.544   0.905 -0.0525 -0.0726  0.1158
 1307ETH      O 5579   3.694   2.499   0.796  0.3981 -0.0555  0.2715
 1307ETH      H 5580   3.955   2.508   0.819 -1.3236 -0.9540 -1.6825
 1307ETH     H1 5581   3.881   2.368   0.912 -1.1618  0.5145 -0.8731
 1307ETH     H2 5582   3.954   2.513   0.992 -1.5715  0.5738  0.4235
 1307ETH     H3 5583   3.715   2.511   0.998 -0.0907 -0.8535 -0.1677
 1307ETH     H4 5584   3.767   2.653   0.916  2.5220  0.0906 -1.6640
 1307ETH     H5 5585   3.599   2.492   0.817 -0.2118  1.6585 -1.5747
 1308ETH      C 5586   4.078   0.568   0.818 -0.1728  0.7445  0.2321
 1308ETH     C1 5587   4.151   0.482   0.916  0.3697  0.0652  0.2681
 1308ETH      O 5588   4.184   0.566   1.029 -0.4865  0.3626 -0.0593
 1308ETH      H 5589   4.022   0.639   0.879  1.0297  1.8202  0.1204
 1308ETH     H1 5590   3.991   0.524   0.769 -1.4046  2.3956  0.8478
 1308ETH     H2 5591   4.148   0.620   0.752  0.3215  0.3434  0.4341
 1308ETH     H3 5592   4.080   0.404   0.947 -0.3893  1.1210  1.2689
 1308ETH     H4 5593   4.247   0.450   0.875 -0.2485 -1.6480  0.0788
 1308ETH     H5 5594   4.101   0.595   1.070 -1.0791 -2.5462  1.0571
 1309ETH      C 5595   3.152   3.650   3.833 -0.1974 -0.7318  0.7378
 1309ETH     C1 5596   3.305   3.630   3.856 -0.2485 -0.7750 -0.0234
 1309ETH      O 5597   3.362   3.571   3.742  0.1533  0.0764  0.1693
 1309ETH      H 5598   3.129   3.706   3.742  0.9774 -3.5559 -1.4616
 1309ETH     H1 5599   3.113   3.709   3.917 -1.0710 -2.6183  1.7413
 1309ETH     H2 5600   3.097   3.556   3.849 -2.3003  0.5512  1.4038
 1309ETH     H3 5601   3.351   3.728   3.876 -0.9101  0.7180 -4.5892
 1309ETH     H4 5602   3.315   3.570   3.947 -0.9324 -0.7513  0.0771
 1309ETH     H5 5603   3.428   3.506   3.774  1.5879  1.0478 -0.7327
 1310ETH      C 5604   3.317   1.431   2.400 -0.3179 -0.2046  0.0665
 1310ETH     C1 5605   3.315   1.517   2.518  0.4202  0.2091  0.1583
 1310ETH      O 5606   3.446   1.579   2.546 -0.7211  0.2953 -0.0975
 1310ETH      H 5607   3.356   1.332   2.425 -1.0787 -0.9361 -1.4702
 1310ETH     H1 5608   3.379   1.468   2.317 -2.5929  0.3425 -1.5120
 1310ETH     H2 5609   3.215   1.415   2.361 -0.3280  1.1614 -0.5149
 1310ETH     H3 5610   3.237   1.593   2.504  0.0841 -0.1189  0.2464
 1310ETH     H4 5611   3.277   1.462   2.604 -3.8414  0.1440 -1.5298
 1310ETH     H5 5612   3.509   1.508   2.567 -0.8281  0.5572  1.1469
 1311ETH      C 5613   2.406   3.952   3.101  0.0283  0.0646 -0.8596
 1311ETH     C1 5614   2.311   3.857   3.016  0.3239  0.1190  0.2510
 1311ETH      O 5615   2.225   3.784   3.110  0.2143 -0.5982  0.4413
 1311ETH      H 5616   2.500   3.987   3.056 -0.0717 -0.4777 -1.5047
 1311ETH     H1 5617   2.434   3.901   3.194  0.7990 -1.4868 -1.8834
 1311ETH     H2 5618   2.351   4.043   3.125  0.2523 -0.3101  1.3127
 1311ETH     H3 5619   2.251   3.929   2.960  0.1302 -0.4072 -0.2203
 1311ETH     H4 5620   2.361   3.791   2.944  1.3703 -0.3749  1.3734
 1311ETH     H5 5621   2.162   3.722   3.070 -0.1131 -0.2529  0.4173
 1312ETH      C 5622   2.138   2.820   3.450 -0.2383 -0.5205  0.1242
 1312ETH     C1 5623   2.268   2.745   3.404 -0.3290 -0.8904 -0.4251
 1312ETH      O 5624   2.378   2.831   3.424  0.2353 -0.1222 -0.7064
 1312ETH      H 5625   2.115   2.806   3.556  2.2069 -0.6260  0.7108
 1312ETH     H1 5626   2.055   2.772   3.397  0.1919 -0.6468 -0.4412
 1312ETH     H2 5627   2.137   2.927   3.425  0.9589 -0.0397  1.9470
 1312ETH     H3 5628   2.279   2.650   3.457  0.5441 -1.3506 -1.4063
 1312ETH     H4 5629   2.257   2.727   3.296  2.0874 -0.1302 -0.8506
 1312ETH     H5 5630   2.370   2.910   3.368 -0.0871  0.3635  0.0022
 1313ETH      C 5631   0.169   3.654   0.231 -0.6206 -0.3536  0.6412
 1313ETH     C1 5632   0.046   3.598   0.290 -0.1963 -0.4056  0.3891
 1313ETH      O 5633   0.029   3.669   0.422  0.0728  0.4462 -0.3347
 1313ETH      H 5634   0.261   3.624   0.283  0.0119 -0.6388 -0.6023
 1313ETH     H1 5635   0.179   3.763   0.232 -0.4995 -0.1962 -3.0894
 1313ETH     H2 5636   0.187   3.619   0.129 -2.1604 -1.7788  0.8144
 1313ETH     H3 5637  -0.043   3.621   0.229 -0.3690 -2.0117 -0.0048
 1313ETH     H4 5638   0.067   3.492   0.308  0.9341 -0.5631 -1.5323
 1313ETH     H5 5639   0.018   3.762   0.396 -0.2085 -0.0631 -2.1930
 1314ETH      C 5640   2.108   1.760   2.629 -0.7361 -0.8008  0.3859
 1314ETH     C1 5641   2.094   1.846   2.758 -0.3004  0.0781 -0.3317
 1314ETH      O 5642   2.207   1.826   2.839  0.6430  0.0768  0.5383
 1314ETH      H 5643   2.041   1.803   2.553  3.2434  1.9259 -1.9718
 1314ETH     H1 5644   2.069   1.658   2.640 -0.9957 -0.7148  0.2718
 1314ETH     H2 5645   2.209   1.765   2.587 -1.2121  4.4400 -0.8957
 1314ETH     H3 5646   2.086   1.950   2.725 -1.0490  0.3479  0.6509
 1314ETH     H4 5647   2.000   1.825   2.811 -0.6009 -3.2556 -1.9228
 1314ETH     H5 5648   2.175   1.781   2.918 -0.9252  2.0514  1.1108
 1315ETH      C 5649   2.927   3.589   2.370 -0.3864 -0.3074  0.2026
 1315ETH     C1 5650   2.965   3.587   2.522 -0.7180 -0.0466  0.4505
 1315ETH      O 5651   2.995   3.445   2.551  0.2879 -0.0415 -0.8233
 1315ETH      H 5652   2.999   3.531   2.311  0.9498 -0.5907  2.0174
 1315ETH     H1 5653   2.920   3.692   2.333  1.1148 -0.6900 -1.2448
 1315ETH     H2 5654   2.830   3.537   2.361 -1.2281  1.5267 -2.9321
 1315ETH     H3 5655   3.048   3.654   2.547  0.7057 -2.3053  2.2322
 1315ETH     H4 5656   2.877   3.623   2.577 -2.2596 -2.4178 -0.3235
 1315ETH     H5 5657   3.011   3.442   2.647 -1.3304 -1.5042 -0.5364
 1316ETH      C 5658   2.939   0.738   3.532  0.1513  0.0846 -0.0298
 1316ETH     C1 5659   2.842   0.777   3.417  0.2348 -0.1418  0.6935
 1316ETH      O 5660   2.849   0.920   3.401  0.3974 -0.1110  0.3825
 1316ETH      H 5661   2.910   0.787   3.625  3.1725  1.4518  0.3309
 1316ETH     H1 5662   3.042   0.775   3.522  0.1063  0.3456  0.4423
 1316ETH     H2 5663   2.943   0.635   3.568  0.0757  0.2189  0.3661
 1316ETH     H3 5664   2.868   0.726   3.323  0.3013  2.1239 -0.5713
 1316ETH     H4 5665   2.738   0.754   3.446  0.5543 -0.8944  1.2928
 1316ETH     H5 5666   2.769   0.943   3.349 -1.1238 -0.1118  2.6037
 1317ETH      C 5667   0.344   0.701   0.800  0.2199  0.2995  0.2322
 1317ETH     C1 5668   0.448   0.701   0.689  0.0738  0.1049  0.2256
 1317ETH      O 5669   0.563   0.620   0.732  0.6119 -0.0941  0.0033
 1317ETH      H 5670   0.336   0.599   0.839 -0.3711 -0.2618 -1.2897
 1317ETH     H1 5671   0.243   0.726   0.766 -0.1805 -0.2102  1.0365
 1317ETH     H2 5672   0.372   0.765   0.884  1.6617  1.8053 -1.3065
 1317ETH     H3 5673   0.401   0.659   0.599  1.2146 -2.3682  0.6885
 1317ETH     H4 5674   0.468   0.808   0.677  1.0741 -0.1815 -0.8140
 1317ETH     H5 5675   0.603   0.662   0.810 -1.1734  0.0350  0.9039
 1318ETH      C 5676   2.456   1.479   2.013  0.3641 -0.2345 -0.1133
 1318ETH     C1 5677   2.540   1.380   1.938 -0.0467 -0.0381 -0.2278
 1318ETH      O 5678   2.556   1.262   2.017 -0.8628 -0.2640  0.7766
 1318ETH      H 5679   2.351   1.447   2.011  0.1074  0.6065 -0.9367
 1318ETH     H1 5680   2.463   1.580   1.971 -1.7833  0.7934  1.7650
 1318ETH     H2 5681   2.496   1.501   2.112 -2.8606  0.4881  1.1521
 1318ETH     H3 5682   2.495   1.366   1.839 -1.2849 -1.5407  0.4928
 1318ETH     H4 5683   2.641   1.412   1.914  0.5950 -0.8113  1.2896
 1318ETH     H5 5684   2.474   1.242   2.065 -0.9375  0.1308  0.8189
 1319ETH      C 5685   2.104   3.556   2.829 -0.3578  0.1124  0.5696
 1319ETH     C1 5686   1.967   3.575   2.907  0.2886  0.0565  0.2065
 1319ETH      O 5687   1.971   3.704   2.978 -0.0607 -0.7989  0.4541
 1319ETH      H 5688   2.126   3.649   2.775  1.1907  1.3858  3.2139
 1319ETH     H1 5689   2.124   3.464   2.774 -0.6259 -1.4889  2.9924
 1319ETH     H2 5690   2.184   3.541   2.902 -1.4154  0.9218  1.9603
 1319ETH     H3 5691   1.885   3.577   2.834  0.3698 -0.5104  0.1004
 1319ETH     H4 5692   1.947   3.489   2.972 -1.2048 -1.3368 -1.9538
 1319ETH     H5 5693   1.900   3.709   3.044 -0.3378 -0.4781  0.1386
 1320ETH      C 5694   3.078   0.388   3.360 -0.2474 -0.6115 -0.5227
 1320ETH     C1 5695   2.953   0.324   3.422  0.2819  0.6869 -0.2488
 1320ETH      O 5696   2.884   0.234   3.331  0.7403 -0.5059 -0.0708
 1320ETH      H 5697   3.039   0.474   3.303  2.4710  0.4208 -0.9794
 1320ETH     H1 5698   3.127   0.317   3.293 -0.4126 -1.4719  0.2482
 1320ETH     H2 5699   3.143   0.431   3.437  1.0881 -0.2816 -1.7933
 1320ETH     H3 5700   2.989   0.268   3.509 -0.0149  1.2577  0.2445
 1320ETH     H4 5701   2.885   0.401   3.458 -0.1134 -0.9151  2.7093
 1320ETH     H5 5702   2.908   0.255   3.239 -1.8507  3.1819 -0.1215
 1321ETH      C 5703   3.974   0.497   2.736  0.5138 -0.8674  0.0575
 1321ETH     C1 5704   4.064   0.412   2.645  0.7286 -0.4087 -0.4704
 1321ETH      O 5705   4.060   0.468   2.513  0.4523 -0.2970  0.3674
 1321ETH      H 5706   3.966   0.467   2.841  1.8052  2.3815  1.1876
 1321ETH     H1 5707   3.871   0.495   2.700  0.0624  1.6641  1.0268
 1321ETH     H2 5708   4.009   0.601   2.740 -1.5155 -0.0145 -2.0494
 1321ETH     H3 5709   4.164   0.424   2.688 -0.3674  2.1720  1.6263
 1321ETH     H4 5710   4.015   0.316   2.664  2.0417 -0.6023  2.4855
 1321ETH     H5 5711   4.087   0.561   2.502 -3.1179  0.7157 -1.3475
 1322ETH      C 5712   2.196   1.070   1.091  0.4914  0.0750 -0.0731
 1322ETH     C1 5713   2.235   1.217   1.079  0.0921  0.8094 -0.0951
 1322ETH      O 5714   2.287   1.274   1.206 -0.2109  0.1644 -0.0862
 1322ETH      H 5715   2.127   1.034   1.013  1.6179 -2.1891 -0.0862
 1322ETH     H1 5716   2.139   1.070   1.185 -0.7920  1.4458 -0.7927
 1322ETH     H2 5717   2.277   1.000   1.114 -1.7225 -2.2442  1.1778
 1322ETH     H3 5718   2.318   1.210   1.008  0.1341 -2.6832  0.1011
 1322ETH     H4 5719   2.150   1.274   1.041 -1.9720 -3.0786 -1.8954
 1322ETH     H5 5720   2.348   1.204   1.236  2.5096  0.2062 -4.5866
 1323ETH      C 5721   4.156   3.937   3.371  0.3898  0.3466  0.0266
 1323ETH     C1 5722   4.306   3.908   3.401 -0.5888  0.0474  0.3735
 1323ETH      O 5723   4.397   3.922   3.290 -0.5881  0.1042  0.1756
 1323ETH      H 5724   4.147   4.034   3.320 -2.5258 -0.6187 -1.4979
 1323ETH     H1 5725   4.093   3.947   3.459 -0.1622  0.2120 -0.3499
 1323ETH     H2 5726   4.115   3.872   3.294  0.1816  1.8804 -1.2263
 1323ETH     H3 5727   4.348   3.961   3.487 -2.4778 -0.3186  1.5795
 1323ETH     H4 5728   4.318   3.804   3.433  2.1068  0.3345  0.5516
 1323ETH     H5 5729   4.371   3.861   3.219 -0.8167  1.0832 -0.6058
 1324ETH      C 5730   0.851   1.171   0.004  0.0908  0.2481 -1.0064
 1324ETH     C1 5731   0.793   1.138   0.150 -0.1407  0.5669 -0.1757
 1324ETH      O 5732   0.887   1.187   0.251  0.5254 -0.4995  0.2546
 1324ETH      H 5733   0.785   1.123  -0.069 -2.1674  0.7772  0.5721
 1324ETH     H1 5734   0.948   1.125  -0.013  0.3434 -0.1069  1.0802
 1324ETH     H2 5735   0.839   1.276  -0.024  0.8545  0.8170  0.6706
 1324ETH     H3 5736   0.697   1.186   0.175  1.2193  2.3642  1.9353
 1324ETH     H4 5737   0.771   1.031   0.156 -0.4997  0.5022 -1.9888
 1324ETH     H5 5738   0.861   1.276   0.280  1.3453  0.0330 -0.6056
 1325ETH      C 5739   3.678   1.144   0.772  0.5278 -0.3598 -0.2481
 1325ETH     C1 5740   3.528   1.106   0.771  0.7603  0.3554  0.0195
 1325ETH      O 5741   3.450   1.207   0.715 -0.6345  0.8403 -0.7622
 1325ETH      H 5742   3.708   1.202   0.860 -1.4185  0.8847 -0.3478
 1325ETH     H1 5743   3.716   1.192   0.680  2.3096 -1.4572 -0.1421
 1325ETH     H2 5744   3.726   1.045   0.770 -1.1656 -1.2066 -0.7793
 1325ETH     H3 5745   3.517   1.018   0.706 -0.3156  0.9038 -0.5524
 1325ETH     H4 5746   3.486   1.081   0.869 -0.5428 -2.0822 -1.0583
 1325ETH     H5 5747   3.366   1.170   0.684 -0.1622 -1.8279  0.8554
 1326ETH      C 5748   3.768   2.792   4.258  0.2759 -0.1410 -0.1961
 1326ETH     C1 5749   3.890   2.876   4.285  0.1154  0.5193 -0.7337
 1326ETH      O 5750   3.900   2.896   4.425  0.1185  0.6870 -0.0081
 1326ETH      H 5751   3.752   2.774   4.151 -0.6265 -0.1470 -0.0695
 1326ETH     H1 5752   3.682   2.839   4.307 -0.0724  1.4770 -2.2148
 1326ETH     H2 5753   3.786   2.688   4.287  0.7039 -0.7573 -2.4931
 1326ETH     H3 5754   3.974   2.817   4.246 -0.4912 -1.3380  0.6000
 1326ETH     H4 5755   3.894   2.975   4.238  1.5158  0.8443 -0.0071
 1326ETH     H5 5756   3.836   2.964   4.453  1.6206  1.8449  0.7973
 1327ETH      C 5757   1.959   0.808   2.407  0.5645  0.4185  0.0715
 1327ETH     C1 5758   2.075   0.710   2.441 -0.5835 -0.2145  0.5882
 1327ETH      O 5759   2.032   0.590   2.504  0.6557 -0.4463 -0.0424
 1327ETH      H 5760   1.911   0.848   2.497 -2.0994 -0.3360 -0.9261
 1327ETH     H1 5761   1.890   0.740   2.356  0.5056  0.9515 -0.5785
 1327ETH     H2 5762   1.975   0.891   2.337  1.6379 -0.4307 -0.7197
 1327ETH     H3 5763   2.135   0.692   2.351 -0.9335  1.3666  0.0031
 1327ETH     H4 5764   2.142   0.767   2.507  0.0442  0.7193 -0.7990
 1327ETH     H5 5765   2.026   0.528   2.430 -2.1174  0.9220 -1.1024
 1328ETH      C 5766   2.188   2.706   3.814 -0.0914 -0.3339 -0.1940
 1328ETH     C1 5767   2.217   2.563   3.761 -0.1636  0.1943 -0.1809
 1328ETH      O 5768   2.138   2.466   3.820 -0.5291 -0.5329  0.3362
 1328ETH      H 5769   2.082   2.733   3.807  0.6500  2.5290 -2.0225
 1328ETH     H1 5770   2.244   2.782   3.758  1.1921  0.7025  2.3388
 1328ETH     H2 5771   2.237   2.723   3.911  0.8721  0.9967 -0.8863
 1328ETH     H3 5772   2.210   2.560   3.652 -2.2001  0.9211 -0.1210
 1328ETH     H4 5773   2.320   2.542   3.792 -0.6514 -0.6598  0.9594
 1328ETH     H5 5774   2.157   2.391   3.760  2.4195  1.9903 -2.2596
 1329ETH      C 5775   1.888   2.504   3.464 -0.6249 -0.2020  0.5262
 1329ETH     C1 5776   1.957   2.388   3.388  0.1257 -0.3593 -0.6475
 1329ETH      O 5777   1.954   2.273   3.471  0.3859 -0.3670 -0.9977
 1329ETH      H 5778   1.961   2.531   3.541 -0.4984  1.7567 -0.2325
 1329ETH     H1 5779   1.791   2.459   3.488 -1.2332 -0.8655 -2.7566
 1329ETH     H2 5780   1.872   2.585   3.393  1.7546 -2.9349 -3.5670
 1329ETH     H3 5781   1.904   2.366   3.295  1.3562 -3.0216 -0.8069
 1329ETH     H4 5782   2.058   2.415   3.356  0.1247  0.4953  0.0242
 1329ETH     H5 5783   2.028   2.290   3.533 -0.9773 -0.2216  0.6560
 1330ETH      C 5784   0.989   4.231   2.842 -0.3931 -0.3388 -0.5879
 1330ETH     C1 5785   1.103   4.332   2.824 -0.2055 -0.6665  0.5037
 1330ETH      O 5786   1.133   4.348   2.682  0.2981 -0.1781  0.1422
 1330ETH      H 5787   0.901   4.275   2.795  0.1050  0.8105 -0.4722
 1330ETH     H1 5788   0.968   4.202   2.945 -3.5370 -2.0134 -1.5669
 1330ETH     H2 5789   1.010   4.138   2.787  1.7655 -0.2242 -0.0626
 1330ETH     H3 5790   1.064   4.427   2.863  3.6983 -0.0033  3.4599
 1330ETH     H4 5791   1.188   4.306   2.888 -1.4867 -0.3414  2.4059
 1330ETH     H5 5792   1.187   4.272   2.656 -0.6867 -0.4435 -1.2255
 1331ETH      C 5793   1.677   0.194   0.776  0.0458  0.0191  0.1196
 1331ETH     C1 5794   1.608   0.072   0.718 -0.6835  0.0817  0.0476
 1331ETH      O 5795   1.494   0.038   0.789 -0.4889 -0.2700  0.4427
 1331ETH      H 5796   1.667   0.199   0.885 -2.0310  3.1118 -0.0724
 1331ETH     H1 5797   1.651   0.295   0.742 -3.0654 -0.7702 -0.2079
 1331ETH     H2 5798   1.783   0.173   0.761  0.2000  2.1906 -2.6959
 1331ETH     H3 5799   1.598   0.078   0.609 -2.3549  0.5117  0.2021
 1331ETH     H4 5800   1.676  -0.014   0.721 -1.2229 -0.4242 -1.2859
 1331ETH     H5 5801   1.424   0.080   0.735  0.2359 -0.1447 -0.4143
 1332ETH      C 5802   3.078   3.377   4.077  0.5768 -0.0310  0.3243
 1332ETH     C1 5803   3.176   3.288   4.151  0.6950  0.3611 -0.2607
 1332ETH      O 5804   3.309   3.320   4.107 -0.2091 -0.5430  0.3042
 1332ETH      H 5805   3.093   3.482   4.105  3.1044  0.2022 -1.4727
 1332ETH     H1 5806   2.974   3.345   4.084  1.0801 -1.2803  2.9450
 1332ETH     H2 5807   3.103   3.374   3.970 -0.5728 -0.0804  0.0460
 1332ETH     H3 5808   3.154   3.305   4.257  0.8061 -1.3771  0.0766
 1332ETH     H4 5809   3.143   3.188   4.120 -1.4379  0.1094  2.4749
 1332ETH     H5 5810   3.357   3.369   4.176  0.9164  1.3212 -1.6528
 1333ETH      C 5811   2.753   2.105   0.236 -0.3428 -0.2475  0.4535
 1333ETH     C1 5812   2.682   2.092   0.365  0.4257  0.5336  0.4533
 1333ETH      O 5813   2.703   2.208   0.438 -0.1356  0.4539 -0.3813
 1333ETH      H 5814   2.859   2.132   0.246 -0.1277 -0.5151 -0.8936
 1333ETH     H1 5815   2.706   2.177   0.168  0.8024  1.1794  1.1147
 1333ETH     H2 5816   2.769   2.006   0.191  4.5301  0.1825  0.6686
 1333ETH     H3 5817   2.573   2.080   0.354  0.2627  2.6017 -0.7726
 1333ETH     H4 5818   2.710   1.999   0.416 -1.7163 -0.3802  0.0673
 1333ETH     H5 5819   2.729   2.181   0.528  0.1426  1.2521 -0.2126
 1334ETH      C 5820   1.878   0.701   0.366  0.1505 -0.0548  0.2250
 1334ETH     C1 5821   1.891   0.743   0.511 -0.1109 -0.1970  0.2138
 1334ETH      O 5822   2.021   0.700   0.570 -0.0367 -0.7297  0.4859
 1334ETH      H 5823   1.781   0.730   0.322 -0.0036  0.9077  1.1769
 1334ETH     H1 5824   1.873   0.592   0.361  2.1831 -0.3244  2.6649
 1334ETH     H2 5825   1.964   0.734   0.305  1.0905  0.7072  1.9046
 1334ETH     H3 5826   1.886   0.852   0.508 -0.5747 -0.1718  1.2077
 1334ETH     H4 5827   1.806   0.718   0.576 -0.9127 -0.6532 -0.9823
 1334ETH     H5 5828   2.028   0.604   0.562 -0.9298 -0.8188  0.7294
 1335ETH      C 5829   4.228   1.154   2.732 -0.5956  0.2862 -0.0951
 1335ETH     C1 5830   4.183   1.092   2.606  0.0277 -0.1654 -0.1448
 1335ETH      O 5831   4.290   1.094   2.515  0.5952 -0.2177  0.0167
 1335ETH      H 5832   4.135   1.164   2.790 -1.7595  1.1949 -2.0137
 1335ETH     H1 5833   4.261   1.257   2.715 -1.4579  0.6045  0.1238
 1335ETH     H2 5834   4.297   1.088   2.785  0.4236 -0.1481 -1.8783
 1335ETH     H3 5835   4.145   0.991   2.626 -1.7500  0.8658  2.1294
 1335ETH     H4 5836   4.104   1.160   2.572 -0.4322 -1.4749 -1.8704
 1335ETH     H5 5837   4.339   1.011   2.525  1.9288  0.6954  1.4078
 1336ETH      C 5838   0.187   3.170   0.346  0.1501  0.4087  0.1590
 1336ETH     C1 5839   0.334   3.209   0.300 -0.2378  0.2682  0.1043
 1336ETH      O 5840   0.399   3.089   0.265  0.1814 -0.3026  0.2749
 1336ETH      H 5841   0.190   3.105   0.434  2.8267  0.3658  0.1194
 1336ETH     H1 5842   0.128   3.117   0.270 -1.1346 -1.5137  2.3714
 1336ETH     H2 5843   0.132   3.261   0.375 -0.4035 -0.3447  1.5717
 1336ETH     H3 5844   0.323   3.272   0.211 -0.5895  1.8341  1.2108
 1336ETH     H4 5845   0.395   3.262   0.374  1.2365  0.5048 -1.2143
 1336ETH     H5 5846   0.335   3.037   0.213 -1.5836 -0.5259  2.5229
 1337ETH      C 5847   3.191   3.914   1.814 -0.6244 -0.2721  0.3915
 1337ETH     C1 5848   3.110   3.971   1.695 -0.2112 -0.2095 -0.4073
 1337ETH      O 5849   2.980   4.004   1.738 -0.7532 -0.1789  0.0871
 1337ETH      H 5850   3.164   3.811   1.842  1.4167 -1.3313 -1.2010
 1337ETH     H1 5851   3.207   3.983   1.898  1.2386 -1.4072  1.0497
 1337ETH     H2 5852   3.296   3.908   1.781  1.0369  2.8757  4.3004
 1337ETH     H3 5853   3.160   4.064   1.663 -0.7160  0.2095  0.0059
 1337ETH     H4 5854   3.114   3.899   1.612  0.2652  1.3136 -1.7855
 1337ETH     H5 5855   2.989   4.010   1.834  0.2446 -1.1236  0.0765
 1338ETH      C 5856   2.275   0.318   3.040 -0.5713  0.4310 -0.3645
 1338ETH     C1 5857   2.192   0.438   3.092 -0.4368 -0.2545  0.0614
 1338ETH      O 5858   2.244   0.566   3.038 -0.1703 -0.2712 -0.6103
 1338ETH      H 5859   2.380   0.319   3.073  0.2333 -1.0638 -2.6277
 1338ETH     H1 5860   2.266   0.304   2.932 -0.7577 -1.8337 -0.0933
 1338ETH     H2 5861   2.220   0.234   3.083 -0.4856  1.4682  1.8949
 1338ETH     H3 5862   2.088   0.424   3.062 -1.1751  1.7484  1.4153
 1338ETH     H4 5863   2.192   0.447   3.202 -2.4548  0.2498  0.0502
 1338ETH     H5 5864   2.226   0.578   2.943 -1.3948  0.8175 -0.2800
 1339ETH      C 5865   1.485   3.564   2.634 -0.1688 -0.0161  0.7464
 1339ETH     C1 5866   1.600   3.662   2.659  0.2779  0.9949 -0.2140
 1339ETH      O 5867   1.621   3.668   2.802 -0.2063 -0.1466  0.3480
 1339ETH      H 5868   1.513   3.458   2.639  0.8482  0.2150  0.0217
 1339ETH     H1 5869   1.447   3.579   2.533 -0.6632  0.6226  1.0213
 1339ETH     H2 5870   1.399   3.591   2.697 -0.1708  0.5330  0.5122
 1339ETH     H3 5871   1.695   3.623   2.620  0.2618 -0.5896  1.2251
 1339ETH     H4 5872   1.570   3.757   2.612 -0.4810  0.4984 -0.7492
 1339ETH     H5 5873   1.624   3.577   2.838  2.2858 -0.6425 -0.8654
 1340ETH      C 5874   0.996   0.118   3.690 -0.7378 -0.3700  0.1265
 1340ETH     C1 5875   1.139   0.145   3.744  0.0268  1.2143  0.1323
 1340ETH      O 5876   1.233   0.086   3.655 -0.2936 -0.0286 -0.1327
 1340ETH      H 5877   0.996   0.125   3.581 -1.4863  1.7462  0.2051
 1340ETH     H1 5878   0.931   0.203   3.715  1.5252  0.7475  2.6857
 1340ETH     H2 5879   0.949   0.030   3.736 -2.4832  1.1802  1.4938
 1340ETH     H3 5880   1.154   0.253   3.740 -3.5111  1.9568  2.3184
 1340ETH     H4 5881   1.163   0.110   3.845 -1.4311  2.2448  0.8708
 1340ETH     H5 5882   1.318   0.094   3.702 -0.9641  0.5907  1.0258
 1341ETH      C 5883   3.258   4.058   3.812  0.5283 -0.2828  0.6836
 1341ETH     C1 5884   3.358   4.143   3.891 -0.1136 -0.6930 -0.0754
 1341ETH      O 5885   3.324   4.141   4.028 -0.5001  0.5761 -0.8397
 1341ETH      H 5886   3.168   4.121   3.809  2.5989  2.8371 -1.6907
 1341ETH     H1 5887   3.234   3.963   3.861  0.2833 -1.1207 -0.9759
 1341ETH     H2 5888   3.295   4.033   3.712  0.4817  1.9234  0.0604
 1341ETH     H3 5889   3.459   4.103   3.872  0.0913  0.5819 -1.9367
 1341ETH     H4 5890   3.357   4.248   3.860  1.3213 -0.0173  1.9690
 1341ETH     H5 5891   3.408   4.125   4.074 -0.4004 -0.3908 -1.3204
 1342ETH      C 5892   2.490   2.084   3.262 -0.1561  0.4402 -0.0987
 1342ETH     C1 5893   2.493   2.120   3.115 -0.5605 -0.5193  0.6866
 1342ETH      O 5894   2.626   2.112   3.072  0.5666 -1.0765  0.0829
 1342ETH      H 5895   2.386   2.103   3.288  0.3252  1.1925  1.4159
 1342ETH     H1 5896   2.570   2.139   3.315  0.2819 -0.2638 -0.0114
 1342ETH     H2 5897   2.519   1.979   3.270  1.6886  0.7388 -1.9685
 1342ETH     H3 5898   2.428   2.054   3.057 -0.4306  0.6981 -0.9314
 1342ETH     H4 5899   2.452   2.222   3.107  1.5413  0.5062  2.1402
 1342ETH     H5 5900   2.668   2.196   3.046 -2.5134  0.2664 -1.0392
 1343ETH      C 5901   1.621   0.207   1.956  0.4612  0.5308 -0.1994
 1343ETH     C1 5902   1.590   0.080   1.869 -0.2121 -0.5763 -0.6704
 1343ETH      O 5903   1.607   0.109   1.736  0.6249  0.8042  0.1269
 1343ETH      H 5904   1.616   0.183   2.063 -1.2031 -0.6319 -0.5005
 1343ETH     H1 5905   1.545   0.285   1.942  0.4135  0.4683 -0.2885
 1343ETH     H2 5906   1.722   0.243   1.932  1.5154 -1.7742  0.5150
 1343ETH     H3 5907   1.660  -0.002   1.892  1.9636  1.3623 -0.0238
 1343ETH     H4 5908   1.485   0.054   1.886 -0.7017  1.9439  0.5988
 1343ETH     H5 5909   1.633   0.024   1.697  0.0598  1.0669 -0.8646
 1344ETH      C 5910   3.133   3.970   2.481  0.0441  0.2354 -0.1170
 1344ETH     C1 5911   3.216   4.056   2.396  0.2355 -0.5413 -0.4950
 1344ETH      O 5912   3.133   4.160   2.340 -0.2343 -0.0094  0.2595
 1344ETH      H 5913   3.097   4.017   2.573 -0.3712 -0.8190  0.2833
 1344ETH     H1 5914   3.189   3.882   2.514 -1.3626 -0.0199  1.7946
 1344ETH     H2 5915   3.048   3.936   2.421 -0.9940  1.1676  0.7845
 1344ETH     H3 5916   3.296   4.107   2.451  0.5899  2.3755 -3.3680
 1344ETH     H4 5917   3.269   4.006   2.314  1.4038  2.8863 -2.0232
 1344ETH     H5 5918   3.088   4.209   2.412 -2.1008 -0.3853 -0.5819
 1345ETH      C 5919   3.059   0.983   2.491  0.5137 -0.4203 -0.2145
 1345ETH     C1 5920   3.107   1.004   2.349  0.1068  0.3317  0.0675
 1345ETH      O 5921   3.183   0.892   2.309  0.7790 -0.1002 -0.0490
 1345ETH      H 5922   2.988   1.060   2.522  1.4158  0.1169  0.5759
 1345ETH     H1 5923   3.137   0.994   2.568 -1.0419  1.0359  1.2526
 1345ETH     H2 5924   3.011   0.889   2.521  1.9486 -1.4937 -1.1180
 1345ETH     H3 5925   3.022   1.007   2.279  0.7963 -0.0458 -0.7986
 1345ETH     H4 5926   3.158   1.100   2.334  0.8106  0.5991  3.3626
 1345ETH     H5 5927   3.139   0.847   2.235 -2.6352 -0.3365  1.9413
 1346ETH      C 5928   1.533   1.221   0.942  0.0833 -0.2781  0.4580
 1346ETH     C1 5929   1.499   1.284   1.080 -0.3087  0.3974  0.2948
 1346ETH      O 5930   1.512   1.422   1.089 -0.6468 -0.4777 -0.0490
 1346ETH      H 5931   1.642   1.219   0.927 -0.1391 -2.8560 -1.4728
 1346ETH     H1 5932   1.483   1.284   0.868  0.5406 -0.0907  0.2986
 1346ETH     H2 5933   1.501   1.117   0.928 -1.1184  0.1175  0.1817
 1346ETH     H3 5934   1.403   1.252   1.121  1.1188  0.4831  4.1919
 1346ETH     H4 5935   1.576   1.241   1.146  0.9971  0.4736 -1.1210
 1346ETH     H5 5936   1.476   1.469   1.012 -1.2887 -0.7448  0.0812
 1347ETH      C 5937   0.133   0.524   2.520  0.2275  0.2396 -0.3708
 1347ETH     C1 5938   0.271   0.534   2.577  0.4196  0.4771  0.0071
 1347ETH      O 5939   0.287   0.663   2.632 -0.1105 -0.8656 -0.2424
 1347ETH      H 5940   0.119   0.606   2.449 -0.2669 -0.3178 -0.9357
 1347ETH     H1 5941   0.057   0.538   2.598  0.8623 -0.6568  0.4414
 1347ETH     H2 5942   0.117   0.424   2.476 -0.4716  0.8660 -1.5806
 1347ETH     H3 5943   0.296   0.455   2.649  3.1281  1.1607 -0.0776
 1347ETH     H4 5944   0.337   0.518   2.491 -0.1332 -0.6867 -0.2181
 1347ETH     H5 5945   0.381   0.691   2.631 -0.9198  2.9072  3.3723
 1348ETH      C 5946   2.412   2.896   2.228  0.0932 -0.2012 -0.8293
 1348ETH     C1 5947   2.464   2.780   2.136  0.3797 -0.1381 -0.1323
 1348ETH      O 5948   2.352   2.702   2.100  0.2674 -0.2740 -0.2573
 1348ETH      H 5949   2.503   2.953   2.250  0.6728 -1.3539 -0.1789
 1348ETH     H1 5950   2.372   2.854   2.321  0.6235 -0.5469 -0.7584
 1348ETH     H2 5951   2.332   2.956   2.181 -0.1473  0.7907  0.7760
 1348ETH     H3 5952   2.510   2.815   2.043 -0.3022 -1.7150 -1.1045
 1348ETH     H4 5953   2.539   2.720   2.188  0.0572 -0.6274 -0.2224
 1348ETH     H5 5954   2.300   2.749   2.033 -0.4181 -0.5629  0.0685
 1349ETH      C 5955   0.660   1.394   1.115 -0.4449 -0.6795  0.2898
 1349ETH     C1 5956   0.678   1.375   0.965  0.2690  0.2686 -0.0927
 1349ETH      O 5957   0.635   1.489   0.888 -0.3104  0.3223  0.4310
 1349ETH      H 5958   0.720   1.480   1.148  0.8908 -0.6770 -1.9188
 1349ETH     H1 5959   0.704   1.305   1.161  1.6912 -1.3442 -2.7287
 1349ETH     H2 5960   0.554   1.399   1.144 -1.2131 -3.8191 -1.4230
 1349ETH     H3 5961   0.782   1.359   0.934  0.0729  0.7039 -1.0453
 1349ETH     H4 5962   0.627   1.284   0.929  1.1123  0.2504 -1.3254
 1349ETH     H5 5963   0.539   1.478   0.882 -0.3880  1.0996  0.2153
 1350ETH      C 5964   0.950   1.520   1.447 -0.8824 -0.1662 -0.1838
 1350ETH     C1 5965   0.966   1.614   1.569  0.3547  0.0054  0.4993
 1350ETH      O 5966   0.916   1.540   1.678  0.2057 -0.1791 -0.2240
 1350ETH      H 5967   1.002   1.572   1.365  0.7808 -0.2165  0.7883
 1350ETH     H1 5968   0.848   1.490   1.418 -1.3101  1.7839 -0.8675
 1350ETH     H2 5969   1.012   1.432   1.468 -1.3916 -0.4783  0.0111
 1350ETH     H3 5970   1.073   1.630   1.587  0.4626 -0.3227  0.1608
 1350ETH     H4 5971   0.912   1.709   1.555  1.7122  0.4858 -2.1662
 1350ETH     H5 5972   0.819   1.548   1.677  0.1629 -0.5924 -1.2816
 1351ETH      C 5973   1.655   1.829   2.900  0.1832  0.2655  0.7258
 1351ETH     C1 5974   1.615   1.706   2.971  0.0792  0.1665  0.3943
 1351ETH      O 5975   1.536   1.620   2.895 -0.7633  0.1048 -0.3073
 1351ETH      H 5976   1.744   1.827   2.836 -1.0721  0.1960 -1.0992
 1351ETH     H1 5977   1.671   1.913   2.968 -0.6425 -0.3577  1.7114
 1351ETH     H2 5978   1.579   1.866   2.830 -0.5567 -0.9980  0.8432
 1351ETH     H3 5979   1.709   1.655   2.996 -0.2735  0.0916  1.6234
 1351ETH     H4 5980   1.555   1.734   3.058 -0.3157  2.3563 -0.5204
 1351ETH     H5 5981   1.519   1.660   2.808 -0.5339 -3.3730 -2.1369
 1352ETH      C 5982   3.080   1.139   3.356  0.1219 -0.0445  0.0554
 1352ETH     C1 5983   3.150   1.056   3.251 -0.7574  0.6137 -1.0075
 1352ETH      O 5984   3.080   0.928   3.245 -0.8719  0.0984  0.4574
 1352ETH      H 5985   3.070   1.091   3.454 -0.0526  0.3829  0.2513
 1352ETH     H1 5986   2.981   1.161   3.313  0.4374 -0.7096 -1.0534
 1352ETH     H2 5987   3.126   1.238   3.363  0.1469 -0.1896  2.7552
 1352ETH     H3 5988   3.153   1.108   3.154  2.9585 -0.2643 -1.5386
 1352ETH     H4 5989   3.255   1.030   3.269 -0.6717  0.7755 -1.2696
 1352ETH     H5 5990   2.997   0.929   3.296 -1.4511  0.2503 -0.4559
 1353ETH      C 5991   4.172   0.267   1.232 -0.3347 -0.3980  0.8170
 1353ETH     C1 5992   4.074   0.349   1.316  0.4398  0.0363  0.7753
 1353ETH      O 5993   3.957   0.264   1.330 -0.0587 -0.1425  0.0516
 1353ETH      H 5994   4.272   0.311   1.234 -1.1970  1.7211  0.8218
 1353ETH     H1 5995   4.125   0.266   1.133  1.3177 -1.2170  0.0012
 1353ETH     H2 5996   4.179   0.165   1.270 -0.9773 -0.9234 -0.4264
 1353ETH     H3 5997   4.107   0.384   1.414  0.3542 -0.2730  0.9149
 1353ETH     H4 5998   4.043   0.437   1.259 -1.3946 -0.5199  0.8554
 1353ETH     H5 5999   3.987   0.172   1.325  0.0945 -0.2025  1.5412
 1354ETH      C 6000   2.973   1.627   1.969 -0.9821 -0.3395 -0.0163
 1354ETH     C1 6001   3.062   1.508   1.960  0.2686  0.1546  0.1002
 1354ETH      O 6002   3.197   1.548   1.959 -0.4600 -0.1988 -0.4846
 1354ETH      H 6003   3.009   1.706   1.903  2.2656 -0.8391  0.9888
 1354ETH     H1 6004   2.960   1.658   2.073 -3.1122  0.6464 -0.5185
 1354ETH     H2 6005   2.871   1.603   1.936 -1.1843  0.4654 -0.0042
 1354ETH     H3 6006   3.048   1.454   2.055 -0.1349  0.1982  0.0657
 1354ETH     H4 6007   3.055   1.452   1.866  3.1242  1.9979 -1.3792
 1354ETH     H5 6008   3.222   1.566   1.867 -2.7175 -0.5149 -1.2233
 1355ETH      C 6009   2.337   1.109   0.186 -0.3773 -0.0206  0.5260
 1355ETH     C1 6010   2.335   1.239   0.255  0.0354 -0.1237  0.1452
 1355ETH      O 6011   2.205   1.267   0.308 -0.1342  0.1940  0.6267
 1355ETH      H 6012   2.440   1.080   0.161  0.2341  0.9662  1.8044
 1355ETH     H1 6013   2.284   1.122   0.091 -0.7561  0.1637  0.7601
 1355ETH     H2 6014   2.301   1.026   0.248  0.2923 -0.1061  0.8128
 1355ETH     H3 6015   2.404   1.224   0.339 -1.1889 -1.4179  0.9666
 1355ETH     H4 6016   2.367   1.314   0.183  0.8667 -0.9806 -0.4056
 1355ETH     H5 6017   2.164   1.330   0.247 -2.2156 -0.1868  1.5671
 1356ETH      C 6018   0.641   3.132   0.529  0.0666 -0.4114 -0.5363
 1356ETH     C1 6019   0.745   3.164   0.424 -0.2969 -0.3776  0.1116
 1356ETH      O 6020   0.683   3.218   0.310 -0.0991  0.1262  0.1506
 1356ETH      H 6021   0.678   3.066   0.608 -1.0022 -2.2346 -1.4801
 1356ETH     H1 6022   0.552   3.079   0.493  0.0411 -0.7111 -0.0430
 1356ETH     H2 6023   0.608   3.221   0.583 -0.2127 -0.5970 -0.3937
 1356ETH     H3 6024   0.826   3.223   0.468  0.5427 -0.0867 -1.7428
 1356ETH     H4 6025   0.783   3.064   0.401 -1.7325 -0.9424  0.0894
 1356ETH     H5 6026   0.593   3.182   0.296  0.0532 -0.5810  0.9063
 1357ETH      C 6027   2.569   3.655   0.285 -0.3338 -0.2159  0.3551
 1357ETH     C1 6028   2.527   3.718   0.417 -0.3803  0.4480 -0.7530
 1357ETH      O 6029   2.423   3.636   0.461 -0.0187  0.0597  0.3116
 1357ETH      H 6030   2.485   3.626   0.220 -0.7996 -0.1737  0.9340
 1357ETH     H1 6031   2.631   3.573   0.323 -1.5775 -1.3185  0.0559
 1357ETH     H2 6032   2.623   3.731   0.227 -0.9414 -1.7043 -2.3195
 1357ETH     H3 6033   2.617   3.718   0.479 -2.1895  1.4225  2.0869
 1357ETH     H4 6034   2.489   3.820   0.405 -1.1743  0.6823  2.6247
 1357ETH     H5 6035   2.379   3.682   0.534 -1.9255 -1.4980  0.2011
 1358ETH      C 6036   0.880   4.018   2.478 -0.1092 -0.1918 -0.1063
 1358ETH     C1 6037   0.754   3.933   2.510 -0.1790  0.1352  0.3202
 1358ETH      O 6038   0.641   3.971   2.435 -0.1050  0.2436 -0.2059
 1358ETH      H 6039   0.928   3.994   2.383  0.8848 -0.3167  0.4177
 1358ETH     H1 6040   0.948   3.999   2.562  0.7073  1.1628 -0.4390
 1358ETH     H2 6041   0.864   4.126   2.476  0.0597 -0.1358 -3.4547
 1358ETH     H3 6042   0.780   3.827   2.496  1.3082  0.3804  1.0182
 1358ETH     H4 6043   0.717   3.949   2.612 -2.6429  0.1896 -0.5201
 1358ETH     H5 6044   0.628   3.905   2.365 -0.2227  1.7654 -1.6850
 1359ETH      C 6045   3.768   4.158   3.592 -0.2144 -0.2943  0.8666
 1359ETH     C1 6046   3.683   4.047   3.527  0.1121  0.1791  0.9848
 1359ETH      O 6047   3.557   4.027   3.594 -0.0882 -0.1774  0.0211
 1359ETH      H 6048   3.869   4.165   3.549 -0.9687 -2.7345 -1.5511
 1359ETH     H1 6049   3.786   4.121   3.694  1.1664  0.8450  1.0833
 1359ETH     H2 6050   3.719   4.256   3.590  0.5693  0.1021  0.0200
 1359ETH     H3 6051   3.661   4.066   3.421 -0.8135 -0.8088  0.9811
 1359ETH     H4 6052   3.737   3.951   3.528 -1.8456 -1.0156 -0.5598
 1359ETH     H5 6053   3.483   4.070   3.548 -0.5795  1.5465  2.2517
 1360ETH      C 6054   4.003   0.790   0.379 -0.3578 -0.1874  0.6777
 1360ETH     C1 6055   3.963   0.854   0.516 -0.8889  0.0593 -0.4269
 1360ETH      O 6056   3.821   0.827   0.544 -0.4511 -0.1178  0.5663
 1360ETH      H 6057   3.972   0.686   0.362 -2.3632  0.7536 -2.4990
 1360ETH     H1 6058   4.107   0.803   0.348 -0.5487  2.8496  0.9730
 1360ETH     H2 6059   3.951   0.841   0.296 -1.2928 -2.5494 -0.2727
 1360ETH     H3 6060   4.013   0.808   0.602  0.1797 -2.4827 -2.2857
 1360ETH     H4 6061   3.985   0.961   0.526  1.6526 -0.5701  1.8313
 1360ETH     H5 6062   3.769   0.870   0.475  1.3262  1.7960  0.3010
 1361ETH      C 6063   0.198   2.795   1.461 -0.2322 -0.5324 -0.3635
 1361ETH     C1 6064   0.264   2.697   1.550 -0.1280 -0.2343 -0.1768
 1361ETH      O 6065   0.342   2.763   1.645 -0.1074  0.3597 -0.3952
 1361ETH      H 6066   0.173   2.742   1.369  0.6299 -3.0819  0.7983
 1361ETH     H1 6067   0.252   2.885   1.429 -1.1067  0.1824  0.1094
 1361ETH     H2 6068   0.100   2.828   1.500 -0.5774  1.2860 -2.5374
 1361ETH     H3 6069   0.190   2.635   1.602 -2.2653  3.5698  1.6893
 1361ETH     H4 6070   0.331   2.634   1.489  0.7350  0.3195  0.1839
 1361ETH     H5 6071   0.303   2.851   1.660 -0.6959 -0.0247  0.3987
 1362ETH      C 6072   1.432   4.229   0.234 -0.8917  0.0394  0.0426
 1362ETH     C1 6073   1.403   4.304   0.365 -0.0258  0.2397  0.6542
 1362ETH      O 6074   1.380   4.219   0.478  1.0506 -1.1149  0.0845
 1362ETH      H 6075   1.528   4.181   0.253 -1.0129  0.2238  1.1990
 1362ETH     H1 6076   1.443   4.301   0.152 -0.2565 -0.3748 -0.2433
 1362ETH     H2 6077   1.356   4.152   0.213 -1.6280 -0.0812  2.7552
 1362ETH     H3 6078   1.479   4.382   0.382 -0.8230  1.6014 -1.5563
 1362ETH     H4 6079   1.316   4.364   0.339 -0.2027 -0.1012  0.4538
 1362ETH     H5 6080   1.330   4.270   0.545  0.4747 -1.3726 -0.1371
 1363ETH      C 6081   3.171   0.566   1.187 -0.5961  0.0414 -0.2652
 1363ETH     C1 6082   3.278   0.477   1.115  0.7015 -0.0720 -0.0086
 1363ETH      O 6083   3.381   0.438   1.207  0.1677  0.0508  0.1368
 1363ETH      H 6084   3.130   0.511   1.273 -0.2685 -2.1740 -1.4388
 1363ETH     H1 6085   3.084   0.580   1.122  0.3421  0.9801 -1.3547
 1363ETH     H2 6086   3.219   0.658   1.223  2.8663 -1.8152  0.3263
 1363ETH     H3 6087   3.219   0.398   1.068  0.3214 -0.1288  0.5595
 1363ETH     H4 6088   3.315   0.539   1.032 -0.5897  3.3420  1.7633
 1363ETH     H5 6089   3.435   0.383   1.148 -0.4375  0.4698 -0.8396
 1364ETH      C 6090   2.278   0.670   0.221  0.0402  0.0358 -0.9244
 1364ETH     C1 6091   2.291   0.591   0.360 -0.6439  0.3125 -0.6289
 1364ETH      O 6092   2.231   0.465   0.366  1.0785  0.4659 -0.0262
 1364ETH      H 6093   2.318   0.615   0.135 -0.5556 -2.2522  0.1755
 1364ETH     H1 6094   2.338   0.760   0.234 -1.2252  1.0136 -1.6738
 1364ETH     H2 6095   2.171   0.693   0.208 -0.3036 -1.3124 -0.6840
 1364ETH     H3 6096   2.398   0.568   0.368 -0.9851 -1.5582 -0.8459
 1364ETH     H4 6097   2.270   0.655   0.446  0.5326  0.0821 -0.1554
 1364ETH     H5 6098   2.138   0.467   0.397  0.5166  2.2235 -1.6476
 1365ETH      C 6099   4.126   1.100   0.784 -0.0977 -0.4401 -0.2364
 1365ETH     C1 6100   4.194   1.073   0.915  0.0649  0.6404 -0.1318
 1365ETH      O 6101   4.328   1.036   0.884 -0.1236  0.0994  0.2607
 1365ETH      H 6102   4.019   1.109   0.801  0.0092 -0.1493  0.3034
 1365ETH     H1 6103   4.152   1.023   0.711  4.0778  0.4015  0.0994
 1365ETH     H2 6104   4.156   1.195   0.737  3.1751 -1.5859 -0.7516
 1365ETH     H3 6105   4.183   1.164   0.975 -3.0194  0.8514 -0.8703
 1365ETH     H4 6106   4.141   0.988   0.959 -0.1433  1.3619  1.0599
 1365ETH     H5 6107   4.353   0.954   0.929  1.9757  0.8457  0.5816
 1366ETH      C 6108   1.584   0.544   2.432  0.2592  0.0155  0.8027
 1366ETH     C1 6109   1.669   0.590   2.556 -0.0884 -0.6173 -0.0925
 1366ETH      O 6110   1.779   0.498   2.576 -0.3234 -0.1622  0.3836
 1366ETH      H 6111   1.483   0.586   2.435  0.6569  1.0597  0.3272
 1366ETH     H1 6112   1.575   0.435   2.436  2.9118 -0.3062  0.2783
 1366ETH     H2 6113   1.641   0.565   2.341  1.3802 -0.4356  1.3729
 1366ETH     H3 6114   1.712   0.690   2.551 -0.9101 -0.1600  1.2857
 1366ETH     H4 6115   1.612   0.605   2.649  2.9603  1.7221  1.5544
 1366ETH     H5 6116   1.828   0.501   2.493  1.4423 -0.7900  1.3468
 1367ETH      C 6117   4.146   1.712   2.575  0.4261 -0.7001  0.7312
 1367ETH     C1 6118   4.251   1.616   2.620 -0.3926  0.6648 -0.1641
 1367ETH      O 6119   4.321   1.685   2.727 -0.0559  0.3664 -0.5794
 1367ETH      H 6120   4.102   1.686   2.478  1.6096 -3.8361  0.8833
 1367ETH     H1 6121   4.192   1.811   2.571  1.1654 -1.0706 -0.5466
 1367ETH     H2 6122   4.065   1.720   2.649 -0.1006  3.9785 -0.0685
 1367ETH     H3 6123   4.216   1.517   2.652  1.1242  0.7821  2.1365
 1367ETH     H4 6124   4.315   1.597   2.533  0.8526  1.4616  0.5510
 1367ETH     H5 6125   4.253   1.738   2.773 -1.5862 -2.1054  0.2059
 1368ETH      C 6126   2.982   1.633   3.991 -0.4341 -0.1117 -0.2761
 1368ETH     C1 6127   2.987   1.546   3.866 -0.5830  0.1441  0.2583
 1368ETH      O 6128   3.112   1.490   3.852 -0.4279  0.1382 -0.3021
 1368ETH      H 6129   3.057   1.712   3.984  0.4153 -1.0349 -2.5368
 1368ETH     H1 6130   3.006   1.570   4.077 -1.1228 -0.6639 -0.4759
 1368ETH     H2 6131   2.878   1.662   4.010 -0.7195 -1.3526  0.1767
 1368ETH     H3 6132   2.915   1.464   3.870  0.5540 -0.8787  0.3134
 1368ETH     H4 6133   2.959   1.603   3.777 -2.8102 -1.0139  0.1509
 1368ETH     H5 6134   3.177   1.537   3.798 -1.9749  0.3662 -2.1005
 1369ETH      C 6135   3.598   1.642   0.136 -0.0536  0.0678  0.8735
 1369ETH     C1 6136   3.488   1.758   0.111 -0.3139 -0.0981  0.4826
 1369ETH      O 6137   3.464   1.767  -0.030  0.0887 -0.8678  0.2785
 1369ETH      H 6138   3.670   1.629   0.055 -0.8340  0.8235  0.0381
 1369ETH     H1 6139   3.538   1.550   0.131  0.9386 -0.5160 -1.7000
 1369ETH     H2 6140   3.655   1.664   0.227  0.5096  4.0809 -0.2592
 1369ETH     H3 6141   3.399   1.753   0.176 -3.1152  0.7134 -2.9849
 1369ETH     H4 6142   3.528   1.856   0.142 -0.3963 -0.4463  1.7293
 1369ETH     H5 6143   3.433   1.681  -0.062  2.0543 -1.1520 -1.1144
 1370ETH      C 6144   2.880   0.825   0.865  0.4088  0.4719  0.2957
 1370ETH     C1 6145   2.874   0.766   0.725  0.1300  0.2837  0.2001
 1370ETH      O 6146   2.944   0.636   0.726  0.6370 -0.6275 -0.1977
 1370ETH      H 6147   2.985   0.805   0.886 -0.0811 -2.2674  0.4925
 1370ETH     H1 6148   2.809   0.775   0.933  0.6827  1.6024  1.4641
 1370ETH     H2 6149   2.861   0.933   0.865  1.9777  0.7635 -0.2923
 1370ETH     H3 6150   2.771   0.744   0.693  0.9505 -1.0522 -1.7334
 1370ETH     H4 6151   2.921   0.832   0.651  2.5653  0.0172  1.4204
 1370ETH     H5 6152   2.881   0.584   0.779 -0.4650  0.3562 -0.4933
 1371ETH      C 6153   0.400   2.484   1.999  0.3203  0.4574  0.0705
 1371ETH     C1 6154   0.356   2.601   1.912  0.7612  0.4874 -0.1778
 1371ETH      O 6155   0.269   2.690   1.980 -0.8338  0.2603 -0.4889
 1371ETH      H 6156   0.327   2.435   2.064  1.8973 -1.0046  0.8124
 1371ETH     H1 6157   0.478   2.519   2.068 -2.4391  0.3914  3.4678
 1371ETH     H2 6158   0.443   2.408   1.934 -2.1990 -1.2772  0.3097
 1371ETH     H3 6159   0.443   2.652   1.868 -0.0209  0.1709 -2.1921
 1371ETH     H4 6160   0.318   2.559   1.819 -0.6336 -0.4114  0.7574
 1371ETH     H5 6161   0.322   2.733   2.049 -1.3004 -1.9217  1.3346
 1372ETH      C 6162   0.201   3.875   2.272 -0.4114 -0.2845  0.7512
 1372ETH     C1 6163   0.220   3.766   2.159  0.6662 -0.2933  0.7691
 1372ETH      O 6164   0.364   3.744   2.146 -0.4118 -0.6469 -0.1675
 1372ETH      H 6165   0.094   3.881   2.298 -0.1702 -0.8318  1.9467
 1372ETH     H1 6166   0.230   3.974   2.237 -0.5495 -0.2574  0.7088
 1372ETH     H2 6167   0.253   3.860   2.367  0.2443  1.5433  0.7088
 1372ETH     H3 6168   0.168   3.679   2.202 -2.5639  1.0294 -0.1980
 1372ETH     H4 6169   0.181   3.788   2.059 -0.8914 -2.0602  0.9188
 1372ETH     H5 6170   0.378   3.648   2.154  1.9794 -0.3937 -0.5178
 1373ETH      C 6171   1.009   0.695   0.616 -0.0999 -0.0984 -0.1311
 1373ETH     C1 6172   0.933   0.633   0.732  0.1253  0.4864 -0.6354
 1373ETH      O 6173   0.960   0.700   0.862 -0.2677  0.0783  0.0535
 1373ETH      H 6174   0.976   0.798   0.602  0.1835 -0.1306 -1.0772
 1373ETH     H1 6175   1.002   0.640   0.521 -0.3619 -0.9176  0.3532
 1373ETH     H2 6176   1.115   0.693   0.644 -0.1837 -1.9354  0.2011
 1373ETH     H3 6177   0.827   0.637   0.706 -0.1355 -0.8347  0.1566
 1373ETH     H4 6178   0.971   0.531   0.741 -1.0797  0.0981  0.2813
 1373ETH     H5 6179   1.021   0.647   0.915 -0.2961  0.2225  0.2311
 1374ETH      C 6180   2.715   1.927   1.976 -0.1369  0.3347  0.4342
 1374ETH     C1 6181   2.786   1.990   2.097  0.7851 -0.6907  0.2449
 1374ETH      O 6182   2.882   2.074   2.063 -0.1016 -0.7235  0.1150
 1374ETH      H 6183   2.659   2.000   1.916  1.0752  1.2823  0.4319
 1374ETH     H1 6184   2.647   1.846   2.007  1.3064 -0.6430  1.1371
 1374ETH     H2 6185   2.793   1.878   1.917  1.0653  3.7829 -1.1087
 1374ETH     H3 6186   2.712   2.052   2.149 -1.5293 -0.6232 -2.8377
 1374ETH     H4 6187   2.810   1.914   2.173 -0.8725  1.2260  2.8807
 1374ETH     H5 6188   2.890   2.143   2.130 -1.9659  0.4381 -0.7462
 1375ETH      C 6189   2.042   1.475   2.100 -0.4512  0.1206 -0.2213
 1375ETH     C1 6190   1.948   1.362   2.047  0.1555 -0.3841  0.1614
 1375ETH      O 6191   1.816   1.418   2.022 -0.1352 -0.5241  0.3465
 1375ETH      H 6192   2.071   1.541   2.018  0.0443  1.0748  0.7058
 1375ETH     H1 6193   2.136   1.429   2.133 -1.7191 -2.7745 -0.2651
 1375ETH     H2 6194   2.005   1.533   2.186 -1.8500  1.1642 -1.4789
 1375ETH     H3 6195   1.989   1.315   1.957  1.0184  2.1802 -0.8688
 1375ETH     H4 6196   1.943   1.292   2.131  0.0386  0.0929  0.5530
 1375ETH     H5 6197   1.745   1.356   2.047 -0.7251 -1.4109 -3.0882
 1376ETH      C 6198   3.413   2.147   0.093 -0.4894  0.0058  0.0167
 1376ETH     C1 6199   3.277   2.196   0.042  0.5107 -0.1297 -0.1219
 1376ETH      O 6200   3.290   2.334   0.001  0.3997  0.1100  0.4331
 1376ETH      H 6201   3.484   2.144   0.009  0.4204 -0.8168  0.7978
 1376ETH     H1 6202   3.422   2.044   0.129 -4.3730 -0.5658 -0.2466
 1376ETH     H2 6203   3.466   2.214   0.162  1.5587 -0.6371 -0.8768
 1376ETH     H3 6204   3.244   2.124  -0.033 -0.1566 -0.0809  0.1180
 1376ETH     H4 6205   3.198   2.188   0.117  0.3576 -1.3800 -0.4040
 1376ETH     H5 6206   3.202   2.364  -0.026  0.2664  0.2086  0.9671
 1377ETH      C 6207   2.370   1.846   0.326 -0.1468 -0.2230 -0.7770
 1377ETH     C1 6208   2.269   1.725   0.300 -0.1379 -0.3307  0.3819
 1377ETH      O 6209   2.202   1.752   0.175  0.0631 -0.3995 -0.2141
 1377ETH      H 6210   2.447   1.820   0.401  1.5883 -1.4803 -2.8716
 1377ETH     H1 6211   2.300   1.918   0.370  2.3482  2.3645 -0.7537
 1377ETH     H2 6212   2.418   1.890   0.238  0.1168 -1.1321 -1.1046
 1377ETH     H3 6213   2.331   1.634   0.298 -2.1853 -1.7885 -0.0257
 1377ETH     H4 6214   2.198   1.715   0.384  1.3170  1.5767  1.9308
 1377ETH     H5 6215   2.174   1.665   0.143 -1.0214 -0.2759  0.3589
 1378ETH      C 6216   1.181   3.995   4.099 -0.2243 -0.3402  0.6731
 1378ETH     C1 6217   1.272   3.914   4.191  0.3799 -0.3265  0.1885
 1378ETH      O 6218   1.355   3.822   4.110  0.7413  0.0591  0.0499
 1378ETH      H 6219   1.123   3.933   4.030 -1.1134 -0.6143  1.6534
 1378ETH     H1 6220   1.230   4.084   4.057 -0.9582 -0.0713  0.3798
 1378ETH     H2 6221   1.107   4.041   4.165 -1.3149 -1.8641  0.5651
 1378ETH     H3 6222   1.352   3.971   4.240  0.6249  0.0809 -0.6745
 1378ETH     H4 6223   1.217   3.846   4.258  0.7539 -0.6289  0.1879
 1378ETH     H5 6224   1.419   3.882   4.068  0.1124 -0.3931 -1.6373
 1379ETH      C 6225   2.342   0.891   2.981  0.3255  0.3835  0.8369
 1379ETH     C1 6226   2.422   0.891   2.857 -0.0064  0.2045 -0.2568
 1379ETH      O 6227   2.518   0.778   2.873 -0.0413 -0.4962 -0.1034
 1379ETH      H 6228   2.407   0.881   3.069 -0.6049  0.6236  1.5691
 1379ETH     H1 6229   2.252   0.829   2.979  1.4840 -1.3760 -1.8658
 1379ETH     H2 6230   2.300   0.990   2.998  1.8041  1.0857  0.6339
 1379ETH     H3 6231   2.350   0.882   2.774 -2.5505  0.6771  1.7510
 1379ETH     H4 6232   2.483   0.982   2.852  0.4258 -0.0932 -0.4237
 1379ETH     H5 6233   2.592   0.814   2.924 -0.9827  3.6568 -1.2899
 1380ETH      C 6234   2.373   2.920   1.215 -0.7355 -0.2257  0.1026
 1380ETH     C1 6235   2.515   2.889   1.258  0.4862  0.3732 -0.6823
 1380ETH      O 6236   2.534   2.753   1.238 -0.1122  0.0199  0.0502
 1380ETH      H 6237   2.358   3.028   1.226  0.4052 -0.2547  2.6290
 1380ETH     H1 6238   2.295   2.865   1.270 -0.0052 -1.2674  0.1197
 1380ETH     H2 6239   2.356   2.893   1.111  1.8292  0.0027 -0.4384
 1380ETH     H3 6240   2.577   2.949   1.191  2.8836 -0.5238  0.5926
 1380ETH     H4 6241   2.524   2.919   1.363 -1.5015  0.3603 -0.4676
 1380ETH     H5 6242   2.459   2.722   1.183 -0.1634 -0.6871  0.5056
 1381ETH      C 6243   1.745   3.797   1.801  0.2159 -0.3544  0.0049
 1381ETH     C1 6244   1.763   3.872   1.937 -0.1899 -0.3040 -0.5537
 1381ETH      O 6245   1.899   3.923   1.952 -0.2508  0.4565  0.8393
 1381ETH      H 6246   1.664   3.724   1.812  0.0253  0.0759  1.9521
 1381ETH     H1 6247   1.833   3.733   1.783  0.8832 -0.0328  1.8640
 1381ETH     H2 6248   1.734   3.860   1.712  2.1984  0.1039  0.0173
 1381ETH     H3 6249   1.684   3.946   1.952  1.1056  2.0538 -4.1115
 1381ETH     H4 6250   1.746   3.791   2.010 -1.2892 -1.8925 -2.4663
 1381ETH     H5 6251   1.956   3.848   1.928 -1.0346  0.7520 -2.3987
 1382ETH      C 6252   4.014   2.562   1.603  0.3198 -0.6577 -0.1108
 1382ETH     C1 6253   3.956   2.519   1.741 -0.8125  0.3380  0.1756
 1382ETH      O 6254   4.013   2.393   1.776 -0.3726  0.3205 -0.2710
 1382ETH      H 6255   3.951   2.638   1.555 -0.9701 -2.0042 -0.6286
 1382ETH     H1 6256   4.041   2.475   1.541  2.3474 -0.2035  0.0806
 1382ETH     H2 6257   4.106   2.620   1.618  1.1763 -1.5136 -1.7698
 1382ETH     H3 6258   3.974   2.598   1.814  1.7275  2.1594 -2.1827
 1382ETH     H4 6259   3.848   2.501   1.731 -0.8765 -0.8647  2.4640
 1382ETH     H5 6260   4.072   2.411   1.852 -0.8848  2.7538 -0.3607
 1383ETH      C 6261   2.828   2.495   4.012  0.0943  0.1817  0.7273
 1383ETH     C1 6262   2.914   2.502   4.140 -0.3990  0.3274  0.1225
 1383ETH      O 6263   2.977   2.382   4.166  0.2156 -0.3661  0.4564
 1383ETH      H 6264   2.745   2.426   4.031  0.8573 -0.0640  3.7899
 1383ETH     H1 6265   2.887   2.455   3.929  1.5686  1.5594  1.0675
 1383ETH     H2 6266   2.797   2.592   3.971  0.7398  0.9572  2.0024
 1383ETH     H3 6267   2.987   2.583   4.131  1.1461 -1.2100 -2.0784
 1383ETH     H4 6268   2.866   2.530   4.235  1.6212 -3.6479  2.6213
 1383ETH     H5 6269   2.976   2.324   4.088 -2.3761 -1.0772  0.9186
 1384ETH      C 6270   4.242   1.166   0.179 -0.0037  0.3113  0.4655
 1384ETH     C1 6271   4.187   1.241   0.051 -0.1735 -0.6581  0.3319
 1384ETH      O 6272   4.154   1.372   0.101  0.3500 -0.1827 -0.2493
 1384ETH      H 6273   4.344   1.202   0.194 -0.7094  2.4627  0.4909
 1384ETH     H1 6274   4.241   1.057   0.168 -2.7357  0.4522 -1.9558
 1384ETH     H2 6275   4.180   1.188   0.266  1.9917  0.1439  1.9946
 1384ETH     H3 6276   4.263   1.250  -0.027 -0.5186 -1.4153 -0.1037
 1384ETH     H4 6277   4.097   1.193   0.010 -0.7654 -0.2189  1.0748
 1384ETH     H5 6278   4.239   1.414   0.124  1.2114 -1.8016 -0.3395
 1385ETH      C 6279   0.747   2.361   0.040 -0.4468  0.5638 -0.8780
 1385ETH     C1 6280   0.742   2.361  -0.109  0.1390  0.4166 -0.0436
 1385ETH      O 6281   0.621   2.419  -0.151  0.1926  0.1702  0.5974
 1385ETH      H 6282   0.668   2.289   0.065 -0.7437  0.2967 -2.4550
 1385ETH     H1 6283   0.720   2.455   0.090  1.1879  0.1456  0.8964
 1385ETH     H2 6284   0.842   2.319   0.075  0.1076  0.6185 -2.2315
 1385ETH     H3 6285   0.826   2.416  -0.152  0.7582 -0.5532 -0.1239
 1385ETH     H4 6286   0.737   2.258  -0.148  1.8208 -0.2307  1.2789
 1385ETH     H5 6287   0.625   2.515  -0.164  0.7018  0.1833  0.8520
 1386ETH      C 6288   2.698   0.607   3.792  0.2209  0.0138 -0.0037
 1386ETH     C1 6289   2.794   0.650   3.902 -0.0285  0.4211  0.1447
 1386ETH      O 6290   2.739   0.764   3.972 -0.4797 -0.5646  0.1621
 1386ETH      H 6291   2.757   0.543   3.725 -0.6250 -0.1815 -0.5698
 1386ETH     H1 6292   2.657   0.687   3.730  1.0461  0.7627  0.3834
 1386ETH     H2 6293   2.617   0.554   3.843 -0.5109  0.5507 -0.5858
 1386ETH     H3 6294   2.817   0.565   3.968 -0.9941 -1.6185 -2.0413
 1386ETH     H4 6295   2.890   0.684   3.862  1.6402 -2.9913  0.8470
 1386ETH     H5 6296   2.651   0.738   4.002 -0.1783 -3.5258 -1.0964
 1387ETH      C 6297   2.735   3.574   2.868  0.0706 -0.3646 -0.7077
 1387ETH     C1 6298   2.846   3.481   2.926  0.2875 -0.0336  0.8791
 1387ETH      O 6299   2.889   3.391   2.829  0.1515 -0.5289  0.8438
 1387ETH      H 6300   2.783   3.625   2.783  0.8027  0.1359 -0.0120
 1387ETH     H1 6301   2.704   3.648   2.943 -1.7275  1.6313 -3.2246
 1387ETH     H2 6302   2.650   3.519   2.826 -0.4587 -0.9956  1.1260
 1387ETH     H3 6303   2.934   3.543   2.946 -0.1618  0.3116  1.8933
 1387ETH     H4 6304   2.804   3.433   3.015 -1.3748 -1.5650 -0.6588
 1387ETH     H5 6305   2.860   3.301   2.853  1.4835 -0.9922  0.8129
 1388ETH      C 6306   2.971   0.881   1.264 -0.6616  0.3712  0.3322
 1388ETH     C1 6307   2.848   0.935   1.204 -0.3088 -0.2015  0.6846
 1388ETH      O 6308   2.756   0.827   1.190 -0.2125  0.2951  0.4684
 1388ETH      H 6309   3.017   0.811   1.195 -1.2396 -0.1859  0.5052
 1388ETH     H1 6310   2.941   0.824   1.353 -1.2265 -1.7230 -1.1308
 1388ETH     H2 6311   3.041   0.959   1.298 -2.0635  1.1128  1.6887
 1388ETH     H3 6312   2.797   1.003   1.275 -1.0544 -0.1460  0.1102
 1388ETH     H4 6313   2.868   0.992   1.113 -2.6018 -0.7768 -0.2534
 1388ETH     H5 6314   2.683   0.864   1.138 -1.2246  2.5312  3.2521
 1389ETH      C 6315   1.414   2.744   3.466  0.2367 -0.7902 -0.4113
 1389ETH     C1 6316   1.494   2.654   3.564 -1.5711  0.3619 -0.2062
 1389ETH      O 6317   1.502   2.731   3.680 -0.2809 -0.2845 -0.2350
 1389ETH      H 6318   1.314   2.761   3.510 -0.4399 -2.6540 -1.1340
 1389ETH     H1 6319   1.392   2.680   3.380  0.5230  0.2207 -1.2589
 1389ETH     H2 6320   1.458   2.840   3.439 -1.1488 -0.5007 -1.7818
 1389ETH     H3 6321   1.446   2.557   3.580 -0.2906 -0.4923 -1.4507
 1389ETH     H4 6322   1.598   2.644   3.533 -2.2541 -0.4880 -2.3680
 1389ETH     H5 6323   1.418   2.715   3.725  0.3845  1.5810  1.8570
 1390ETH      C 6324   2.674   3.060   3.720  0.3205  0.1743 -0.4879
 1390ETH     C1 6325   2.691   3.209   3.704 -0.7084 -0.1896  0.3501
 1390ETH      O 6326   2.725   3.235   3.566 -0.1559 -0.2387 -0.0283
 1390ETH      H 6327   2.605   3.013   3.649  0.1339 -0.2404 -0.0380
 1390ETH     H1 6328   2.632   3.035   3.818  0.3247 -0.3339 -0.6123
 1390ETH     H2 6329   2.769   3.008   3.710  0.4568 -0.1776  2.0568
 1390ETH     H3 6330   2.608   3.278   3.723  0.5316  0.9098  2.0595
 1390ETH     H4 6331   2.776   3.240   3.766  0.6421  3.0495 -2.8064
 1390ETH     H5 6332   2.665   3.294   3.518 -0.2242 -0.8253 -0.6881
 1391ETH      C 6333   1.193   2.437   0.353  0.7122 -0.3354  0.1933
 1391ETH     C1 6334   1.045   2.404   0.313 -0.4935  0.3317  0.8194
 1391ETH      O 6335   0.979   2.522   0.277 -0.5069 -0.3435  0.8085
 1391ETH      H 6336   1.224   2.526   0.297 -0.4503  0.9040  1.4526
 1391ETH     H1 6337   1.258   2.351   0.332 -1.6523 -2.2754  0.2293
 1391ETH     H2 6338   1.188   2.453   0.461 -3.0221  0.7221  0.0226
 1391ETH     H3 6339   1.063   2.348   0.220 -0.5698  1.6077  0.0224
 1391ETH     H4 6340   0.986   2.341   0.381  0.0915 -0.7695  0.3421
 1391ETH     H5 6341   0.903   2.529   0.337 -1.9902 -1.3494 -0.8448
 1392ETH      C 6342   1.948   0.153   3.688  0.4259 -0.5494 -0.2453
 1392ETH     C1 6343   1.822   0.228   3.740 -0.1367 -0.0339 -0.0032
 1392ETH      O 6344   1.704   0.143   3.720 -0.1277  0.3245 -0.3977
 1392ETH      H 6345   2.042   0.204   3.714 -0.7008  2.1652 -1.1670
 1392ETH     H1 6346   1.947   0.143   3.579  1.3503  2.7232 -0.6508
 1392ETH     H2 6347   1.946   0.052   3.731  3.7029 -0.0111  1.5592
 1392ETH     H3 6348   1.832   0.256   3.846  1.9940 -0.4312 -0.0674
 1392ETH     H4 6349   1.816   0.320   3.681  0.4437  0.9515  1.3978
 1392ETH     H5 6350   1.689   0.145   3.624 -1.1065  0.6008 -0.2485
 1393ETH      C 6351   0.538   1.217   2.236 -0.8965  1.0040 -0.1351
 1393ETH     C1 6352   0.514   1.346   2.160  0.5146  0.4008 -0.3875
 1393ETH      O 6353   0.632   1.371   2.080 -0.0349  0.0041  0.2466
 1393ETH      H 6354   0.445   1.198   2.292 -1.0192  0.8047 -0.4060
 1393ETH     H1 6355   0.614   1.225   2.314  0.0133 -1.7408 -0.6262
 1393ETH     H2 6356   0.565   1.127   2.180  1.3924  0.5136  1.6129
 1393ETH     H3 6357   0.423   1.347   2.099  0.5305  0.6916 -0.4070
 1393ETH     H4 6358   0.493   1.424   2.234  0.1910 -0.0874  0.0369
 1393ETH     H5 6359   0.706   1.346   2.137  0.2361  0.7869  0.2407
 1394ETH      C 6360   1.245   2.214   0.036  0.4265  0.3341  0.2222
 1394ETH     C1 6361   1.148   2.177  -0.084  0.1010 -0.4582  0.0604
 1394ETH      O 6362   1.155   2.275  -0.193  0.6715  0.4091  0.2416
 1394ETH      H 6363   1.228   2.319   0.059  0.1932  0.4054 -0.2728
 1394ETH     H1 6364   1.351   2.214   0.008 -0.0125 -0.7731 -1.6115
 1394ETH     H2 6365   1.228   2.143   0.119 -1.5738 -0.9907 -1.2235
 1394ETH     H3 6366   1.172   2.075  -0.117 -2.0908 -1.1159  0.3553
 1394ETH     H4 6367   1.047   2.175  -0.042  0.9598 -1.0776  2.2189
 1394ETH     H5 6368   1.230   2.248  -0.250  0.3979 -0.1844  0.1484
 1395ETH      C 6369   3.803   1.513   1.677  0.1006  0.5042 -0.7663
 1395ETH     C1 6370   3.854   1.606   1.567  0.3715  0.2168 -0.1369
 1395ETH      O 6371   3.969   1.679   1.619 -0.1112 -0.3622 -0.3015
 1395ETH      H 6372   3.855   1.417   1.684  1.2079  1.1185 -0.3515
 1395ETH     H1 6373   3.699   1.498   1.645 -0.0425  0.5332 -0.3252
 1395ETH     H2 6374   3.804   1.563   1.775  0.0933 -0.2330 -0.3863
 1395ETH     H3 6375   3.889   1.544   1.484  0.3918  0.7381 -0.5237
 1395ETH     H4 6376   3.776   1.674   1.532  0.4048 -0.0301 -0.6875
 1395ETH     H5 6377   4.030   1.699   1.546  0.3406  0.4332  0.2839
 1396ETH      C 6378   1.802   0.941   2.836  0.1675 -0.2865 -0.4174
 1396ETH     C1 6379   1.726   1.071   2.863 -0.3921  0.3728 -0.2652
 1396ETH      O 6380   1.805   1.155   2.945 -0.3023  0.7863  0.2352
 1396ETH      H 6381   1.893   0.958   2.778 -0.2661 -0.1474 -1.0757
 1396ETH     H1 6382   1.747   0.870   2.773 -3.3475  2.2754 -0.5446
 1396ETH     H2 6383   1.828   0.889   2.928  2.0497  0.5067 -0.4545
 1396ETH     H3 6384   1.702   1.113   2.765 -2.0537  1.8938  0.7458
 1396ETH     H4 6385   1.628   1.041   2.903  0.3535  0.7375  2.0228
 1396ETH     H5 6386   1.759   1.172   3.029  0.9144  0.6565  0.9555
 1397ETH      C 6387   1.918   3.811   2.601 -0.5245  0.4468 -0.6506
 1397ETH     C1 6388   1.933   3.904   2.721  0.9824  0.2439  0.5997
 1397ETH      O 6389   2.061   3.899   2.791 -0.8254 -0.8758 -0.0432
 1397ETH      H 6390   1.993   3.858   2.536 -1.4707  1.1304 -1.2615
 1397ETH     H1 6391   1.822   3.810   2.549 -1.9734 -2.7929  1.7552
 1397ETH     H2 6392   1.943   3.713   2.644 -2.8739  0.7916  1.7684
 1397ETH     H3 6393   1.920   4.004   2.677  0.7370  0.1560  0.4683
 1397ETH     H4 6394   1.845   3.881   2.783  0.9596 -1.7437 -0.0988
 1397ETH     H5 6395   2.037   3.844   2.868 -1.5126  0.5865  0.8349
 1398ETH      C 6396   2.875   3.931   3.254 -0.2312 -0.7558  0.9376
 1398ETH     C1 6397   2.866   3.796   3.194  0.6115  0.1114  0.0343
 1398ETH      O 6398   2.901   3.687   3.284 -0.1406 -0.1043  0.4682
 1398ETH      H 6399   2.979   3.959   3.272 -0.4106  1.1579 -0.6352
 1398ETH     H1 6400   2.819   3.940   3.348  1.6885 -0.8674  2.1257
 1398ETH     H2 6401   2.840   4.015   3.192  3.9782 -0.4834 -1.4861
 1398ETH     H3 6402   2.765   3.771   3.158  0.3064  0.9958  0.2423
 1398ETH     H4 6403   2.926   3.794   3.103 -1.0924  0.5752 -1.1540
 1398ETH     H5 6404   2.868   3.705   3.374 -2.6571  1.8266 -0.7035
 1399ETH      C 6405   0.997   4.154   0.256  0.0748 -0.2109 -0.3273
 1399ETH     C1 6406   0.907   4.030   0.232 -0.6145 -0.1537 -0.1557
 1399ETH      O 6407   0.974   3.907   0.260  0.0126 -0.3993  0.3065
 1399ETH      H 6408   0.932   4.236   0.222 -0.0880 -0.4829 -0.6693
 1399ETH     H1 6409   1.086   4.150   0.192 -0.7566  1.1212 -1.6461
 1399ETH     H2 6410   1.027   4.159   0.361  1.8794 -0.5759 -0.8025
 1399ETH     H3 6411   0.823   4.045   0.300 -0.2987 -1.4195  0.5447
 1399ETH     H4 6412   0.876   4.025   0.127 -3.1010  1.1653  0.4502
 1399ETH     H5 6413   0.995   3.899   0.355  0.4043 -0.4800  0.2166
 1400ETH      C 6414   0.589   0.964   1.893  0.3095  0.1198 -0.3742
 1400ETH     C1 6415   0.536   0.825   1.845 -0.5141 -0.0152  0.7616
 1400ETH      O 6416   0.500   0.746   1.956 -0.0097  0.2815 -0.1802
 1400ETH      H 6417   0.514   1.008   1.959 -0.4986 -1.5180 -0.1287
 1400ETH     H1 6418   0.597   1.032   1.808 -0.4398 -0.6848 -1.1080
 1400ETH     H2 6419   0.690   0.955   1.936  0.6416  0.8169 -0.9908
 1400ETH     H3 6420   0.448   0.840   1.782 -0.1548  0.9494  0.4692
 1400ETH     H4 6421   0.602   0.766   1.780  0.0527  1.0913  0.2987
 1400ETH     H5 6422   0.571   0.724   2.018 -0.6746 -2.1124 -0.1577
 1401ETH      C 6423   0.402   3.708   3.076 -0.3693  0.2479 -0.1636
 1401ETH     C1 6424   0.333   3.613   2.975 -0.5697 -0.6384  0.7986
 1401ETH      O 6425   0.227   3.689   2.923  0.3709  0.7055 -0.1001
 1401ETH      H 6426   0.386   3.812   3.047  1.5199  0.1198 -1.9035
 1401ETH     H1 6427   0.511   3.703   3.072 -0.3331 -2.6646  1.8275
 1401ETH     H2 6428   0.374   3.695   3.181  1.4532  1.2354  0.4852
 1401ETH     H3 6429   0.404   3.587   2.896  0.0348  1.5380  0.5564
 1401ETH     H4 6430   0.290   3.526   3.026 -0.9850 -0.6041  0.5111
 1401ETH     H5 6431   0.249   3.726   2.836 -0.4259 -1.2449 -1.1776
 1402ETH      C 6432   3.103   0.867   1.776 -0.1917  1.2049 -0.3914
 1402ETH     C1 6433   3.134   0.746   1.873 -0.2322 -0.0208  0.2333
 1402ETH      O 6434   3.151   0.791   2.004 -0.2295  0.1371  0.3269
 1402ETH      H 6435   3.011   0.914   1.813 -0.4609  0.0743  0.4367
 1402ETH     H1 6436   3.077   0.822   1.679  2.0997 -0.7381 -0.1914
 1402ETH     H2 6437   3.192   0.925   1.753  1.1148 -0.5971 -0.0957
 1402ETH     H3 6438   3.049   0.677   1.861 -1.9367  2.0096 -0.0403
 1402ETH     H4 6439   3.229   0.699   1.843  0.8477  2.2315 -0.0560
 1402ETH     H5 6440   3.059   0.784   2.035 -1.0220  1.1453 -1.6314
 1403ETH      C 6441   0.283   2.507   0.410  0.5410 -0.1337  0.2823
 1403ETH     C1 6442   0.270   2.642   0.335 -0.2736  0.6423 -0.4451
 1403ETH      O 6443   0.229   2.610   0.212  0.2972 -0.3517  0.5836
 1403ETH      H 6444   0.305   2.524   0.516 -2.7325 -1.3013  1.2799
 1403ETH     H1 6445   0.361   2.445   0.364  0.4454 -0.0633  0.0266
 1403ETH     H2 6446   0.186   2.458   0.413  0.5972 -0.2472  3.4559
 1403ETH     H3 6447   0.192   2.702   0.384 -0.4740 -0.9021  1.2245
 1403ETH     H4 6448   0.362   2.699   0.349 -0.9994  1.1217  3.2087
 1403ETH     H5 6449   0.296   2.554   0.167 -0.5610  0.9713 -2.5974
 1404ETH      C 6450   1.289   1.571   2.120  0.1416 -0.7927 -0.0896
 1404ETH     C1 6451   1.282   1.700   2.033 -0.0788  0.3306 -0.2577
 1404ETH      O 6452   1.219   1.661   1.904  0.1084  0.2616  1.0351
 1404ETH      H 6453   1.374   1.578   2.190 -0.1024 -2.1580  0.3770
 1404ETH     H1 6454   1.312   1.495   2.046  2.0783  1.0196 -1.4643
 1404ETH     H2 6455   1.199   1.539   2.174  0.5432 -0.4775  0.8028
 1404ETH     H3 6456   1.215   1.769   2.085 -1.4820 -1.1616 -0.0161
 1404ETH     H4 6457   1.388   1.726   2.019  0.1948 -1.5480 -2.2447
 1404ETH     H5 6458   1.200   1.746   1.861  0.7904  0.4047  1.0139
 1405ETH      C 6459   0.595   3.422   0.048  0.6304 -0.1319 -0.4905
 1405ETH     C1 6460   0.459   3.412  -0.019  0.3281  0.1717  0.1130
 1405ETH      O 6461   0.478   3.463  -0.150  0.1481  0.0601 -0.0381
 1405ETH      H 6462   0.634   3.525   0.054  1.1088 -0.2927 -0.7760
 1405ETH     H1 6463   0.671   3.352   0.012  0.5861 -0.8122  0.7292
 1405ETH     H2 6464   0.576   3.393   0.151  0.7612 -2.0979 -0.9900
 1405ETH     H3 6465   0.424   3.308  -0.012 -3.0742  1.0981 -1.0636
 1405ETH     H4 6466   0.389   3.472   0.040 -0.3432 -0.5407  0.0652
 1405ETH     H5 6467   0.513   3.388  -0.202  0.4697 -0.2393  0.5857
 1406ETH      C 6468   0.625   2.462   0.988 -0.3410  0.7751 -0.1974
 1406ETH     C1 6469   0.607   2.480   0.837 -0.0812  0.4525 -0.4002
 1406ETH      O 6470   0.481   2.546   0.806  0.5459  0.3039 -0.1978
 1406ETH      H 6471   0.702   2.384   0.988 -2.4444 -1.4515 -1.8679
 1406ETH     H1 6472   0.532   2.425   1.032  0.2879  1.6408  1.9492
 1406ETH     H2 6473   0.667   2.548   1.042  0.5613 -0.1994  0.7018
 1406ETH     H3 6474   0.686   2.547   0.802  1.5129 -1.3496 -0.4680
 1406ETH     H4 6475   0.614   2.381   0.790  0.0214  0.1054  0.3251
 1406ETH     H5 6476   0.476   2.632   0.851 -2.1032 -0.8538  2.0214
 1407ETH      C 6477   3.287   3.462   0.231  0.7466  0.0891 -0.4971
 1407ETH     C1 6478   3.341   3.430   0.366  0.7884 -0.2773 -0.4827
 1407ETH      O 6479   3.255   3.497   0.469 -0.0945 -0.2029  0.0113
 1407ETH      H 6480   3.272   3.569   0.211 -2.7314  0.5257  3.1126
 1407ETH     H1 6481   3.184   3.424   0.230  2.0260 -3.8771 -2.7166
 1407ETH     H2 6482   3.338   3.412   0.148 -0.0669  0.0079 -0.9558
 1407ETH     H3 6483   3.348   3.323   0.388  0.1830 -0.3233 -0.4890
 1407ETH     H4 6484   3.441   3.476   0.369  0.4121  0.5033  0.5898
 1407ETH     H5 6485   3.309   3.534   0.541  0.0984  0.2509 -0.3597
 1408ETH      C 6486   2.555   1.454   0.382  0.1369 -0.0290 -0.0936
 1408ETH     C1 6487   2.710   1.464   0.406  0.7101  0.1033  0.2736
 1408ETH      O 6488   2.745   1.327   0.405 -0.1664 -0.3931  0.7185
 1408ETH      H 6489   2.538   1.438   0.275  2.6797 -0.8130 -0.4339
 1408ETH     H1 6490   2.527   1.558   0.402  0.1469 -0.3522  1.7818
 1408ETH     H2 6491   2.503   1.381   0.446  0.1378 -0.3030 -0.4025
 1408ETH     H3 6492   2.766   1.507   0.322  0.6276 -2.5775 -1.2887
 1408ETH     H4 6493   2.740   1.504   0.504  1.4486 -1.5472  0.7762
 1408ETH     H5 6494   2.761   1.296   0.314 -1.3982  1.3952 -0.1603
 1409ETH      C 6495   0.570   2.218   0.349  0.1341 -0.2876  0.2884
 1409ETH     C1 6496   0.663   2.191   0.464  0.5070  0.2506 -0.5746
 1409ETH      O 6497   0.637   2.289   0.556 -0.1991 -0.2374  0.5316
 1409ETH      H 6498   0.462   2.206   0.365 -0.3834  2.5035 -0.5447
 1409ETH     H1 6499   0.595   2.155   0.263 -2.0925  0.5161 -1.0531
 1409ETH     H2 6500   0.578   2.319   0.306 -0.2983  0.1239  1.1607
 1409ETH     H3 6501   0.654   2.091   0.510  0.5706  0.3516 -0.3385
 1409ETH     H4 6502   0.765   2.193   0.425  1.2499  0.8613  1.2744
 1409ETH     H5 6503   0.674   2.369   0.515 -0.4330 -1.1665 -1.6361
 1410ETH      C 6504   3.658   2.322   3.879  0.1237  0.2441 -0.0021
 1410ETH     C1 6505   3.712   2.445   3.938  0.6569  0.1956 -0.3575
 1410ETH      O 6506   3.860   2.438   3.925 -0.0400 -0.1460 -0.6314
 1410ETH      H 6507   3.683   2.310   3.773  3.2014 -0.8175  0.7429
 1410ETH     H1 6508   3.549   2.330   3.866  0.0840  0.4573  0.4521
 1410ETH     H2 6509   3.674   2.224   3.926 -1.7534 -1.9333 -3.4383
 1410ETH     H3 6510   3.671   2.536   3.894 -0.0297  0.2162  0.2991
 1410ETH     H4 6511   3.686   2.453   4.045 -0.1245  0.6800 -0.5702
 1410ETH     H5 6512   3.876   2.345   3.900  1.4139 -0.1112  0.0973
 1411ETH      C 6513   1.641   3.713   3.223  0.3250 -0.2827  0.1225
 1411ETH     C1 6514   1.757   3.801   3.267  0.7807 -0.2309  0.0301
 1411ETH      O 6515   1.875   3.736   3.237 -0.1128  0.3618 -0.5669
 1411ETH      H 6516   1.633   3.628   3.292 -2.0936 -0.0890  0.1552
 1411ETH     H1 6517   1.661   3.692   3.117 -0.3651  3.7458 -0.9840
 1411ETH     H2 6518   1.543   3.762   3.226 -0.6847 -2.1995 -0.3982
 1411ETH     H3 6519   1.756   3.897   3.212 -0.4538 -0.5005 -0.4442
 1411ETH     H4 6520   1.750   3.831   3.372 -0.2373 -1.2184  0.2497
 1411ETH     H5 6521   1.911   3.684   3.310  3.2416  1.3653 -1.3178
 1412ETH      C 6522   3.135   0.219   3.835 -0.0922  0.3149 -0.0789
 1412ETH     C1 6523   3.170   0.244   3.984  0.3396  0.0275 -0.0919
 1412ETH      O 6524   3.053   0.267   4.062 -0.0783  0.1433 -0.0291
 1412ETH      H 6525   3.229   0.186   3.788  1.3279  2.4965  1.0880
 1412ETH     H1 6526   3.110   0.312   3.784 -2.6891 -0.9135 -1.2317
 1412ETH     H2 6527   3.051   0.151   3.816  0.8896 -0.4866 -1.8953
 1412ETH     H3 6528   3.218   0.153   4.022 -0.3755 -0.3290 -0.0207
 1412ETH     H4 6529   3.253   0.317   3.982 -0.7657  1.3235 -0.1529
 1412ETH     H5 6530   2.983   0.223   4.010  1.0141 -0.1080 -1.3461
 1413ETH      C 6531   2.788   3.523   3.693  0.2504  0.4624 -0.1622
 1413ETH     C1 6532   2.875   3.575   3.575  1.0716  0.1199 -0.2041
 1413ETH      O 6533   2.828   3.710   3.543  0.3885  0.1057 -0.3587
 1413ETH      H 6534   2.833   3.432   3.735 -1.6060 -0.3490  0.1568
 1413ETH     H1 6535   2.682   3.504   3.671  0.5983 -3.7091  0.8617
 1413ETH     H2 6536   2.790   3.590   3.779  3.5453  1.4907 -0.8990
 1413ETH     H3 6537   2.980   3.579   3.605  0.7023  0.5942  1.1248
 1413ETH     H4 6538   2.866   3.506   3.491  0.4032  0.2829 -0.2717
 1413ETH     H5 6539   2.750   3.735   3.596  0.3077 -0.7964 -0.0287
 1414ETH      C 6540   2.906   3.649   2.033  0.2006 -0.4308  0.1856
 1414ETH     C1 6541   2.815   3.534   2.075  0.1707  0.0669 -0.3886
 1414ETH      O 6542   2.746   3.470   1.959 -1.2832  0.3562 -0.0629
 1414ETH      H 6543   2.990   3.668   2.101 -0.1369  2.2186 -0.0612
 1414ETH     H1 6544   2.843   3.736   2.012 -0.4352 -0.4792  1.7479
 1414ETH     H2 6545   2.947   3.621   1.935 -1.5702  1.8197 -1.2941
 1414ETH     H3 6546   2.872   3.461   2.133 -1.0917 -1.1900 -0.6850
 1414ETH     H4 6547   2.735   3.575   2.138  1.9885  1.0826  1.3662
 1414ETH     H5 6548   2.819   3.446   1.899 -1.3559  0.1587 -0.0727
 1415ETH      C 6549   3.580   0.349   3.827 -0.4320 -0.4501  0.2512
 1415ETH     C1 6550   3.687   0.250   3.888 -0.0585 -0.8388  0.1771
 1415ETH      O 6551   3.711   0.153   3.783 -0.1170 -0.3898  0.0596
 1415ETH      H 6552   3.629   0.412   3.752 -1.1056  2.1958  1.9222
 1415ETH     H1 6553   3.541   0.426   3.893 -3.1473 -0.5973 -1.0517
 1415ETH     H2 6554   3.499   0.294   3.776 -0.6991  1.0342 -1.0036
 1415ETH     H3 6555   3.783   0.298   3.905 -1.2579  2.1636 -0.8480
 1415ETH     H4 6556   3.643   0.200   3.975  0.2819 -2.0352 -0.3129
 1415ETH     H5 6557   3.775   0.193   3.721 -1.1578  0.6329 -0.4142
 1416ETH      C 6558   3.502   1.060   0.292 -0.3352  0.1507 -0.8288
 1416ETH     C1 6559   3.646   1.060   0.340  0.0976  0.3078  0.1091
 1416ETH      O 6560   3.706   0.934   0.316  0.0299 -0.2978 -0.0460
 1416ETH      H 6561   3.449   0.967   0.314 -1.6954  0.2863 -3.1568
 1416ETH     H1 6562   3.500   1.077   0.183 -0.0211  0.2558 -0.8195
 1416ETH     H2 6563   3.452   1.147   0.337 -0.7524 -0.1440 -0.7162
 1416ETH     H3 6564   3.706   1.150   0.321 -1.8797  1.0785 -3.3272
 1416ETH     H4 6565   3.630   1.070   0.448 -1.8965  2.5282 -0.3162
 1416ETH     H5 6566   3.708   0.930   0.219  0.1671  0.6607 -0.0957
 1417ETH      C 6567   0.360   0.131   2.580 -0.4315 -0.0820  0.7032
 1417ETH     C1 6568   0.254   0.071   2.678  0.6247 -0.5692 -0.2724
 1417ETH      O 6569   0.310  -0.028   2.759  0.4523  0.1248  0.0222
 1417ETH      H 6570   0.316   0.186   2.496  1.6899 -1.7785 -1.7118
 1417ETH     H1 6571   0.426   0.054   2.538  0.6513  0.3834  1.5044
 1417ETH     H2 6572   0.420   0.201   2.639 -1.0698 -1.2760  2.8904
 1417ETH     H3 6573   0.218   0.157   2.737  0.4552 -0.2924 -0.7787
 1417ETH     H4 6574   0.168   0.025   2.629  0.9068  0.2785 -1.6016
 1417ETH     H5 6575   0.334   0.003   2.848  0.0876 -1.4362  0.6948
 1418ETH      C 6576   3.137   4.047   1.343 -0.2514 -0.3849 -0.0959
 1418ETH     C1 6577   3.280   4.100   1.336 -0.4297 -0.1049 -0.6173
 1418ETH      O 6578   3.286   4.228   1.280  0.5532 -0.0731  0.3970
 1418ETH      H 6579   3.085   4.054   1.246  1.1070 -0.6035 -0.8736
 1418ETH     H1 6580   3.085   4.092   1.428  1.2454  0.4039  0.4261
 1418ETH     H2 6581   3.141   3.937   1.350  0.0478 -0.3905 -0.3442
 1418ETH     H3 6582   3.332   4.107   1.433  2.0776  3.4535 -2.0419
 1418ETH     H4 6583   3.331   4.027   1.273 -1.5831 -2.7064  1.2590
 1418ETH     H5 6584   3.210   4.281   1.309  1.9802  2.3154  0.0396
 1419ETH      C 6585   4.216   3.446   2.133  0.3272 -0.1648 -0.5217
 1419ETH     C1 6586   4.068   3.418   2.106 -0.0626 -0.2297 -0.2375
 1419ETH      O 6587   4.051   3.343   1.984  0.7109 -0.1336 -0.2387
 1419ETH      H 6588   4.260   3.494   2.045  1.1230  0.4236  0.1807
 1419ETH     H1 6589   4.264   3.354   2.167  0.7132 -0.2953 -1.4040
 1419ETH     H2 6590   4.226   3.515   2.218 -0.0654 -0.9388  0.1710
 1419ETH     H3 6591   4.024   3.368   2.193 -3.2583  2.3934 -0.1106
 1419ETH     H4 6592   4.013   3.513   2.097  0.3016 -0.0614 -0.7049
 1419ETH     H5 6593   4.058   3.250   2.009  2.1851 -0.5963 -2.1211
 1420ETH      C 6594   4.162   1.849   0.662  0.0477 -0.2355 -0.2701
 1420ETH     C1 6595   4.060   1.757   0.724  0.5290  0.2453 -0.6409
 1420ETH      O 6596   4.075   1.627   0.662  0.5767  1.1461 -0.4980
 1420ETH      H 6597   4.135   1.875   0.559 -1.1466 -0.8410 -0.1329
 1420ETH     H1 6598   4.262   1.806   0.673  0.5513  0.9086 -0.2438
 1420ETH     H2 6599   4.155   1.941   0.721 -1.5939 -1.9930  2.5354
 1420ETH     H3 6600   4.070   1.755   0.834 -0.2516  1.8143 -0.5119
 1420ETH     H4 6601   3.958   1.785   0.695  0.1406 -1.0103 -0.5462
 1420ETH     H5 6602   4.171   1.621   0.648  0.5928 -0.7578  0.2013
 1421ETH      C 6603   3.541   0.008   2.702  0.2243  0.1145 -0.0356
 1421ETH     C1 6604   3.512   0.158   2.718 -0.0441  0.2333  0.2459
 1421ETH      O 6605   3.388   0.176   2.794  0.4831 -0.1195 -0.1058
 1421ETH      H 6606   3.562  -0.032   2.802 -1.2606 -0.4783  0.0719
 1421ETH     H1 6607   3.626  -0.012   2.637  1.7317  0.8814  1.6215
 1421ETH     H2 6608   3.453  -0.040   2.656  0.3227 -1.1750  1.0608
 1421ETH     H3 6609   3.589   0.217   2.768 -1.2932  2.4498 -0.3426
 1421ETH     H4 6610   3.500   0.193   2.615  3.2116 -0.4118 -0.4434
 1421ETH     H5 6611   3.414   0.174   2.888 -2.5796 -0.4328  0.8308
 1422ETH      C 6612   2.540   3.567   3.194  0.0086 -0.2761 -0.0319
 1422ETH     C1 6613   2.609   3.537   3.332 -0.0522  0.2125  0.5209
 1422ETH      O 6614   2.549   3.437   3.416 -0.1523 -0.1029  0.7537
 1422ETH      H 6615   2.431   3.565   3.195 -0.0427  0.6289 -1.3978
 1422ETH     H1 6616   2.583   3.498   3.121 -0.9845 -0.2531 -0.6531
 1422ETH     H2 6617   2.565   3.672   3.173  1.8138 -1.0251 -1.9979
 1422ETH     H3 6618   2.713   3.519   3.304  0.1099  1.9177 -0.0894
 1422ETH     H4 6619   2.614   3.632   3.386 -1.8077  1.1628 -0.8817
 1422ETH     H5 6620   2.534   3.357   3.362  2.4326  0.6051 -1.2588
 1423ETH      C 6621   3.021   1.130   3.708  0.8691 -0.0314  0.2206
 1423ETH     C1 6622   3.008   1.121   3.868 -0.2765 -0.2506 -0.1770
 1423ETH      O 6623   3.070   1.010   3.918 -0.5251  0.1012 -0.1967
 1423ETH      H 6624   2.998   1.026   3.681 -0.6639 -0.0776  1.5242
 1423ETH     H1 6625   3.119   1.163   3.673 -0.9237  3.8772 -1.7043
 1423ETH     H2 6626   2.945   1.198   3.668  1.1719  1.0102  1.3556
 1423ETH     H3 6627   3.046   1.219   3.901  0.8822 -0.0565 -1.9539
 1423ETH     H4 6628   2.900   1.117   3.887  0.0311 -0.6525  1.6918
 1423ETH     H5 6629   3.135   0.980   3.851 -2.1655  0.1767 -1.9058
 1424ETH      C 6630   0.791   0.563   2.993 -0.2882  0.0081 -0.2460
 1424ETH     C1 6631   0.816   0.684   2.901  0.7375 -0.1879 -0.3639
 1424ETH      O 6632   0.687   0.747   2.871 -0.0467  0.3964 -0.1433
 1424ETH      H 6633   0.887   0.515   3.015 -0.7087  0.0799  1.9368
 1424ETH     H1 6634   0.719   0.498   2.942 -2.4145  2.6210 -0.7915
 1424ETH     H2 6635   0.748   0.588   3.090 -0.8544  0.2508 -0.5593
 1424ETH     H3 6636   0.870   0.764   2.954 -1.9229  1.4986  0.0260
 1424ETH     H4 6637   0.865   0.664   2.805  0.0808  0.2748 -0.7995
 1424ETH     H5 6638   0.629   0.722   2.945  0.4562  0.3510  0.2442
 1425ETH      C 6639   1.248   2.383   3.291  0.3760 -0.0464 -0.3737
 1425ETH     C1 6640   1.356   2.330   3.376 -0.6008  0.0457  0.0257
 1425ETH      O 6641   1.294   2.278   3.496 -0.0785 -0.1396  0.0988
 1425ETH      H 6642   1.190   2.300   3.248 -1.6479  0.6050  0.9121
 1425ETH     H1 6643   1.281   2.433   3.200  1.2104  0.4007  0.1635
 1425ETH     H2 6644   1.180   2.448   3.348 -1.8588 -2.0426 -0.6019
 1425ETH     H3 6645   1.399   2.239   3.332 -1.1045  0.5243 -1.5247
 1425ETH     H4 6646   1.431   2.408   3.392 -0.5780  0.2528 -1.0266
 1425ETH     H5 6647   1.244   2.199   3.472 -0.0347 -0.1864  0.1597
 1426ETH      C 6648   3.533   2.042   0.446  0.4310  0.7098  0.1398
 1426ETH     C1 6649   3.471   1.935   0.534 -0.5641  0.1189 -0.6786
 1426ETH      O 6650   3.400   1.844   0.442 -0.2352 -0.3663  0.3127
 1426ETH      H 6651   3.571   2.004   0.350  0.0001 -2.2153  1.0201
 1426ETH     H1 6652   3.614   2.094   0.498  1.1567  2.0842 -2.1934
 1426ETH     H2 6653   3.464   2.126   0.437  2.8494  2.6631 -1.5700
 1426ETH     H3 6654   3.543   1.881   0.597  0.4666 -1.7387 -3.2565
 1426ETH     H4 6655   3.400   1.978   0.605 -0.9771 -3.3739  1.2172
 1426ETH     H5 6656   3.433   1.753   0.448 -1.6966 -0.8665  1.3147
 1427ETH      C 6657   0.134   0.400   3.496  0.2301  0.2618  0.1542
 1427ETH     C1 6658   0.122   0.287   3.599 -1.0339  0.0523  0.4397
 1427ETH      O 6659  -0.012   0.248   3.596  0.3358  0.2841 -0.1573
 1427ETH      H 6660   0.242   0.414   3.483  0.4414 -0.5390  0.9212
 1427ETH     H1 6661   0.103   0.495   3.541  2.4751  0.7747  0.7582
 1427ETH     H2 6662   0.085   0.383   3.400  0.7784 -1.7869  0.1924
 1427ETH     H3 6663   0.178   0.193   3.590  1.8197  1.6640  0.1910
 1427ETH     H4 6664   0.145   0.313   3.703 -1.0713 -2.9658  1.3003
 1427ETH     H5 6665  -0.059   0.264   3.680 -0.4373  3.6225 -1.0687
 1428ETH      C 6666   3.957   2.139   0.415 -0.4743 -0.7564  0.2211
 1428ETH     C1 6667   3.945   2.294   0.406  0.0572 -0.7554  0.3046
 1428ETH      O 6668   3.897   2.355   0.527 -0.0725  0.2459  0.3919
 1428ETH      H 6669   3.860   2.088   0.429 -0.4850 -0.6572  0.4980
 1428ETH     H1 6670   4.022   2.122   0.501 -0.9606 -1.0542  0.5377
 1428ETH     H2 6671   4.007   2.107   0.323 -1.1249  0.4377 -0.5781
 1428ETH     H3 6672   4.040   2.336   0.369  0.2297 -0.3990  1.1416
 1428ETH     H4 6673   3.868   2.318   0.332 -0.5516  0.2346  1.2233
 1428ETH     H5 6674   3.887   2.451   0.518 -3.2139  0.6348  4.6977
 1429ETH      C 6675   3.380   0.137   3.495 -0.3168  0.0300  0.2866
 1429ETH     C1 6676   3.423   0.012   3.417  0.2890  0.3888 -0.3748
 1429ETH      O 6677   3.361  -0.108   3.475  0.2473 -0.0411  0.3284
 1429ETH      H 6678   3.274   0.132   3.520 -1.1721 -1.1058 -3.0133
 1429ETH     H1 6679   3.412   0.231   3.450  1.2171 -0.7345 -0.3174
 1429ETH     H2 6680   3.422   0.134   3.596 -0.9557 -0.8768  0.5381
 1429ETH     H3 6681   3.381   0.018   3.316 -0.1904 -0.0334 -0.2083
 1429ETH     H4 6682   3.532   0.004   3.414  0.1996 -1.4708  0.0547
 1429ETH     H5 6683   3.275  -0.121   3.432  0.5335 -1.8015  0.2141
 1430ETH      C 6684   3.323   3.829   0.923  0.8940  0.2149  0.7656
 1430ETH     C1 6685   3.339   3.711   1.024 -0.7365 -0.4076 -0.4492
 1430ETH      O 6686   3.390   3.591   0.960  0.0795 -0.6101  0.3009
 1430ETH      H 6687   3.276   3.917   0.969 -0.2536 -0.1820  0.3725
 1430ETH     H1 6688   3.258   3.784   0.848  1.3464  1.3529 -0.3261
 1430ETH     H2 6689   3.420   3.855   0.879 -0.6074  0.6417 -2.5735
 1430ETH     H3 6690   3.391   3.741   1.116  1.1952 -2.4933 -0.7782
 1430ETH     H4 6691   3.239   3.689   1.063 -0.6677  0.6253  0.3377
 1430ETH     H5 6692   3.479   3.571   0.994 -0.1751 -2.3340  0.0640
 1431ETH      C 6693   3.561   3.853   2.557  0.4100  0.3297 -0.0770
 1431ETH     C1 6694   3.581   3.705   2.538 -0.4346 -0.0067  0.1651
 1431ETH      O 6695   3.606   3.648   2.659  0.0003 -0.5669 -0.9998
 1431ETH      H 6696   3.501   3.873   2.468 -1.2951 -1.6399  0.5463
 1431ETH     H1 6697   3.653   3.913   2.553  0.5430  0.0874 -0.8522
 1431ETH     H2 6698   3.497   3.862   2.645  0.0441 -1.9072 -0.0628
 1431ETH     H3 6699   3.490   3.661   2.497 -0.6858  0.5312  0.1348
 1431ETH     H4 6700   3.672   3.688   2.479 -1.2513 -2.7788 -0.4108
 1431ETH     H5 6701   3.530   3.671   2.715  1.7287  0.7965  0.9249
 1432ETH      C 6702   0.108   0.873   1.269 -0.6878  0.0023  0.0650
 1432ETH     C1 6703   0.175   0.860   1.128 -0.2973  0.0648 -0.1378
 1432ETH      O 6704   0.087   0.804   1.025 -0.1308 -0.4864 -0.0313
 1432ETH      H 6705   0.177   0.908   1.347 -0.4525  0.0595 -0.1640
 1432ETH     H1 6706   0.065   0.776   1.296 -2.8163  0.7647 -0.4360
 1432ETH     H2 6707   0.024   0.943   1.269 -1.4791 -0.8889 -1.8683
 1432ETH     H3 6708   0.213   0.960   1.103 -0.2499  0.0881  0.0226
 1432ETH     H4 6709   0.264   0.796   1.133  0.2792  0.6137 -2.4777
 1432ETH     H5 6710   0.041   0.724   1.055 -0.1835 -1.0839 -1.6123
 1433ETH      C 6711   3.100   2.784   3.792  0.0360  0.9942 -0.7861
 1433ETH     C1 6712   3.107   2.632   3.745  0.5007  0.6339  0.3433
 1433ETH      O 6713   3.048   2.627   3.617 -0.2007  0.5880 -0.5099
 1433ETH      H 6714   3.154   2.792   3.887 -1.4379  1.1397  0.0869
 1433ETH     H1 6715   2.994   2.809   3.807 -0.1443 -0.3711  0.4617
 1433ETH     H2 6716   3.145   2.855   3.723 -1.3049  0.9529 -1.7434
 1433ETH     H3 6717   3.213   2.602   3.740  0.5002  0.4892  1.0636
 1433ETH     H4 6718   3.050   2.566   3.812  1.3251  0.1635  0.5969
 1433ETH     H5 6719   3.092   2.693   3.561 -2.2155  1.4783 -1.1406
 1434ETH      C 6720   0.136   1.354   3.517 -0.0955  0.5114  0.6820
 1434ETH     C1 6721   0.238   1.428   3.605 -1.1382  0.3132 -0.2681
 1434ETH      O 6722   0.285   1.313   3.684  0.3875 -0.4723  0.1871
 1434ETH      H 6723   0.079   1.269   3.556 -1.1439  0.0689 -1.6119
 1434ETH     H1 6724   0.174   1.317   3.420 -6.4417  1.2004 -2.5904
 1434ETH     H2 6725   0.063   1.430   3.488 -0.4103  0.6046  1.7075
 1434ETH     H3 6726   0.316   1.475   3.544 -0.3891 -0.1291  0.3296
 1434ETH     H4 6727   0.194   1.506   3.668 -0.2261  0.8449 -0.2863
 1434ETH     H5 6728   0.208   1.281   3.735 -1.4454  3.1513  0.0056
 1435ETH      C 6729   2.212   2.123   2.521 -0.1695 -0.5594 -0.0697
 1435ETH     C1 6730   2.335   2.212   2.496 -1.5644 -0.7420 -0.0221
 1435ETH      O 6731   2.399   2.240   2.615 -1.2265 -0.0082  0.1564
 1435ETH      H 6732   2.172   2.136   2.622 -1.0202  0.8208 -0.5518
 1435ETH     H1 6733   2.249   2.020   2.520 -0.4582 -0.6653 -1.2232
 1435ETH     H2 6734   2.130   2.139   2.450 -0.9355 -1.2223  0.6538
 1435ETH     H3 6735   2.404   2.166   2.425 -0.6262  0.0298  0.3668
 1435ETH     H4 6736   2.288   2.303   2.455 -2.7337 -0.7680  1.1804
 1435ETH     H5 6737   2.448   2.159   2.637 -1.3944  0.0697  0.8327
 1436ETH      C 6738   3.390   1.349   3.046  0.1649 -0.0840 -0.0296
 1436ETH     C1 6739   3.367   1.319   2.895 -0.4377 -0.1555 -0.4278
 1436ETH      O 6740   3.491   1.262   2.840 -0.4026 -0.2771 -0.2851
 1436ETH      H 6741   3.458   1.435   3.056 -3.7624  3.9338 -3.7219
 1436ETH     H1 6742   3.421   1.260   3.103  0.0026 -2.2885 -3.0886
 1436ETH     H2 6743   3.296   1.378   3.094  1.2108  1.4737  1.1549
 1436ETH     H3 6744   3.291   1.241   2.884  0.0276 -0.6843  0.0920
 1436ETH     H4 6745   3.332   1.409   2.843 -2.1535 -0.9432 -0.7242
 1436ETH     H5 6746   3.499   1.287   2.747 -1.4580  0.6204 -0.1476
 1437ETH      C 6747   0.774   0.061   1.972 -0.2699  0.2577 -0.0347
 1437ETH     C1 6748   0.780  -0.079   1.902  0.4031 -0.0970 -0.3798
 1437ETH      O 6749   0.916  -0.122   1.905  0.1716  0.0248 -0.2449
 1437ETH      H 6750   0.787   0.059   2.081  0.8890  0.8435 -0.1487
 1437ETH     H1 6751   0.673   0.104   1.958  0.0150  0.5601 -1.2980
 1437ETH     H2 6752   0.851   0.131   1.937 -0.3833 -0.6130 -2.1700
 1437ETH     H3 6753   0.718  -0.152   1.955  1.3474 -0.5301  0.1702
 1437ETH     H4 6754   0.745  -0.065   1.799 -1.1458  3.5890  0.4728
 1437ETH     H5 6755   0.961  -0.054   1.852 -0.4513  0.7119  0.0832
 1438ETH      C 6756   0.167   3.178   0.759  0.2431 -0.7152 -0.2511
 1438ETH     C1 6757   0.243   3.061   0.825  0.1804  0.5498 -0.3573
 1438ETH      O 6758   0.316   3.106   0.941  0.4616  0.3683  0.6463
 1438ETH      H 6759   0.247   3.252   0.748  0.4529 -1.0942 -1.3233
 1438ETH     H1 6760   0.087   3.223   0.820 -0.6137  1.4422 -2.7911
 1438ETH     H2 6761   0.129   3.153   0.660 -0.0929  2.7745 -1.1175
 1438ETH     H3 6762   0.179   2.975   0.847  1.3719 -0.6765 -1.4909
 1438ETH     H4 6763   0.319   3.026   0.754  0.9474 -1.4414  1.3290
 1438ETH     H5 6764   0.390   3.159   0.906  0.8159 -0.4213  0.1973
 1439ETH      C 6765   3.012   3.237   0.945  0.1570 -0.3375 -0.1856
 1439ETH     C1 6766   2.932   3.222   1.076  0.6613  0.2541  0.1411
 1439ETH      O 6767   2.901   3.353   1.126 -0.2625  0.0663 -0.0258
 1439ETH      H 6768   3.032   3.140   0.898 -1.3330 -0.9067  0.2901
 1439ETH     H1 6769   3.106   3.290   0.964  0.8843 -0.6231 -2.6922
 1439ETH     H2 6770   2.942   3.292   0.881 -0.3410 -0.3919  0.3060
 1439ETH     H3 6771   2.843   3.160   1.060  0.7808 -0.3771  1.7611
 1439ETH     H4 6772   3.002   3.168   1.142  1.9238  3.3346  1.5208
 1439ETH     H5 6773   2.974   3.357   1.190 -2.4119  1.7021  2.5396
 1440ETH      C 6774   0.673   0.991   3.887  0.2801  0.4378  0.0732
 1440ETH     C1 6775   0.673   0.926   3.751 -0.1546 -0.1452  0.6955
 1440ETH      O 6776   0.798   0.859   3.733 -0.3796  0.3176 -0.2594
 1440ETH      H 6777   0.673   0.908   3.959 -1.6372 -0.9895 -1.4563
 1440ETH     H1 6778   0.576   1.040   3.900  0.5104  0.5861  1.3556
 1440ETH     H2 6779   0.748   1.068   3.907 -1.2324  1.9174  0.3094
 1440ETH     H3 6780   0.586   0.862   3.738  0.2176 -0.6561  0.6923
 1440ETH     H4 6781   0.664   1.008   3.678  0.9346 -1.0079 -0.4490
 1440ETH     H5 6782   0.774   0.768   3.759  1.5514 -0.0459  0.3955
 1441ETH      C 6783   0.300   3.740   1.093 -0.2227 -0.7272 -0.5638
 1441ETH     C1 6784   0.318   3.876   1.009  0.0391  0.6407 -0.1734
 1441ETH      O 6785   0.214   3.963   1.024  0.4800 -0.0665 -0.4665
 1441ETH      H 6786   0.203   3.688   1.092 -0.8987  0.4258  0.5348
 1441ETH     H1 6787   0.304   3.760   1.201 -0.5225  1.5662 -0.9236
 1441ETH     H2 6788   0.379   3.668   1.069  0.3902 -0.3576  0.2781
 1441ETH     H3 6789   0.417   3.919   1.031  0.8051 -2.0065  2.1293
 1441ETH     H4 6790   0.335   3.849   0.904 -1.2060 -2.0026  0.2119
 1441ETH     H5 6791   0.246   4.034   1.082 -0.0887  1.2356 -1.6826
 1442ETH      C 6792   0.003   0.698   3.135  0.4548  0.3643  0.1594
 1442ETH     C1 6793   0.047   0.821   3.217 -0.4787  0.0325  0.9157
 1442ETH      O 6794   0.189   0.793   3.242 -0.1682  0.0389 -0.0945
 1442ETH      H 6795   0.027   0.603   3.184  1.2221  0.5988  0.2401
 1442ETH     H1 6796   0.045   0.710   3.034  0.9228  0.7500  0.3984
 1442ETH     H2 6797  -0.107   0.695   3.130  0.4244  0.3108  0.8174
 1442ETH     H3 6798   0.039   0.918   3.166 -1.2537 -1.2835 -1.6249
 1442ETH     H4 6799  -0.009   0.829   3.311  0.0978  0.4918  1.2241
 1442ETH     H5 6800   0.244   0.855   3.192  0.5599 -0.5594 -0.0564
 1443ETH      C 6801   3.845   3.924   0.426  0.3947  0.3869  0.0004
 1443ETH     C1 6802   3.698   3.909   0.374  0.2165 -0.5443 -0.2394
 1443ETH      O 6803   3.628   3.800   0.439 -0.0281 -0.7664 -0.1663
 1443ETH      H 6804   3.906   4.003   0.380 -1.5930  3.6649  2.4693
 1443ETH     H1 6805   3.894   3.826   0.424  1.0341  0.7155 -1.6695
 1443ETH     H2 6806   3.846   3.945   0.534  1.0013 -1.4776  0.3848
 1443ETH     H3 6807   3.650   4.008   0.375  0.3981 -0.4387 -1.0748
 1443ETH     H4 6808   3.688   3.899   0.265 -1.7127  3.3193 -0.6074
 1443ETH     H5 6809   3.534   3.821   0.447  0.0441 -0.6596  0.4815
 1444ETH      C 6810   2.234   1.344   4.056 -0.2572 -0.1612  0.1657
 1444ETH     C1 6811   2.087   1.314   4.081 -0.4340  0.6220  0.5492
 1444ETH      O 6812   2.034   1.402   4.172 -0.5096 -0.4930 -0.9025
 1444ETH      H 6813   2.278   1.293   3.969  1.0446  1.1963 -0.0246
 1444ETH     H1 6814   2.295   1.320   4.144 -0.5904 -0.2981  0.3617
 1444ETH     H2 6815   2.264   1.448   4.039  1.1900 -0.5830 -0.0883
 1444ETH     H3 6816   2.043   1.323   3.980  2.2817  0.9338 -0.6961
 1444ETH     H4 6817   2.079   1.212   4.118 -0.2988  0.8418  1.2011
 1444ETH     H5 6818   1.962   1.456   4.134 -0.9078  0.4543  1.0931
 1445ETH      C 6819   2.084   0.529   4.013  0.0630 -0.4081 -0.5796
 1445ETH     C1 6820   2.140   0.455   3.888 -0.0561  0.3019 -0.0510
 1445ETH      O 6821   2.268   0.510   3.847  0.1016  0.4130  0.7236
 1445ETH      H 6822   1.994   0.480   4.052  0.0491 -1.4147 -1.8133
 1445ETH     H1 6823   2.066   0.631   3.978  0.1524 -1.1394 -2.9327
 1445ETH     H2 6824   2.162   0.524   4.090 -0.0989 -0.7288 -0.4348
 1445ETH     H3 6825   2.145   0.347   3.903 -0.7071  0.2624 -0.0818
 1445ETH     H4 6826   2.058   0.473   3.817  0.1794  3.1928  0.2954
 1445ETH     H5 6827   2.262   0.517   3.750 -2.4946 -0.9944  0.6921
 1446ETH      C 6828   2.504   2.404   2.244 -0.4681  0.2542  0.1406
 1446ETH     C1 6829   2.368   2.374   2.196  0.3189  0.2699  0.4244
 1446ETH      O 6830   2.281   2.475   2.252  0.3094 -0.1554 -0.1481
 1446ETH      H 6831   2.532   2.506   2.217  2.2221 -1.2053 -3.4211
 1446ETH     H1 6832   2.580   2.332   2.211  0.6352 -0.0096  2.9371
 1446ETH     H2 6833   2.526   2.392   2.351  0.3298  0.0046 -0.0481
 1446ETH     H3 6834   2.372   2.363   2.086  0.0460 -0.6961  0.4995
 1446ETH     H4 6835   2.339   2.273   2.228  0.8142 -0.0109  0.0164
 1446ETH     H5 6836   2.312   2.561   2.218  1.3635 -0.0567  0.9923
 1447ETH      C 6837   0.630   0.374   2.564 -0.0311 -0.3987 -0.4146
 1447ETH     C1 6838   0.691   0.231   2.529  0.1764 -0.4266 -0.6632
 1447ETH      O 6839   0.713   0.218   2.390  0.1865 -0.5312  0.3012
 1447ETH      H 6840   0.708   0.451   2.560  0.1790 -0.6700 -2.4175
 1447ETH     H1 6841   0.583   0.354   2.661 -0.9277 -1.2822 -1.0149
 1447ETH     H2 6842   0.548   0.393   2.494 -1.4199  0.7685  1.4294
 1447ETH     H3 6843   0.789   0.234   2.577  0.4653  1.6428 -1.2607
 1447ETH     H4 6844   0.627   0.153   2.572 -0.0042  0.2538  0.3297
 1447ETH     H5 6845   0.673   0.135   2.358  1.1883 -0.8024 -0.2994
 1448ETH      C 6846   1.484   0.767   3.910  0.1308  0.4348 -1.3183
 1448ETH     C1 6847   1.409   0.672   3.812  0.0676 -0.0040  0.0350
 1448ETH      O 6848   1.354   0.750   3.708 -0.3346 -0.0120  0.0958
 1448ETH      H 6849   1.562   0.714   3.966 -0.1714  1.7335  0.4118
 1448ETH     H1 6850   1.411   0.793   3.988  2.4558 -0.3431  1.2839
 1448ETH     H2 6851   1.525   0.855   3.860  1.4007 -0.3892 -1.7938
 1448ETH     H3 6852   1.486   0.607   3.769  1.0802 -0.1689  1.9374
 1448ETH     H4 6853   1.334   0.608   3.860  0.3658  0.6343  1.4379
 1448ETH     H5 6854   1.327   0.835   3.748  3.2695  1.1590  0.3976
 1449ETH      C 6855   0.726   4.044   0.839  0.0263  0.3804  0.9606
 1449ETH     C1 6856   0.713   3.898   0.790  0.1486  0.3562 -0.0481
 1449ETH      O 6857   0.846   3.864   0.764  0.1171 -0.0306 -0.0336
 1449ETH      H 6858   0.747   4.123   0.766  1.4630 -0.3985  0.4937
 1449ETH     H1 6859   0.805   4.047   0.915 -0.2164  1.6272  1.1849
 1449ETH     H2 6860   0.624   4.070   0.871 -0.8726 -0.8108 -0.7965
 1449ETH     H3 6861   0.672   3.835   0.870  2.4237  0.4012  1.2415
 1449ETH     H4 6862   0.647   3.883   0.704  0.5947 -0.6163 -0.2264
 1449ETH     H5 6863   0.891   3.846   0.848  0.3096 -1.0193 -0.3402
 1450ETH      C 6864   3.190   3.150   3.724  0.3480  0.2354  0.2098
 1450ETH     C1 6865   3.333   3.120   3.686 -0.6319 -0.3015 -0.0897
 1450ETH      O 6866   3.384   3.238   3.614 -0.2821  0.7445  0.0581
 1450ETH      H 6867   3.118   3.084   3.673  0.4187  0.8255 -0.6786
 1450ETH     H1 6868   3.156   3.254   3.721 -0.0819  0.1711  1.8124
 1450ETH     H2 6869   3.183   3.117   3.828  0.1517 -3.0728 -0.7444
 1450ETH     H3 6870   3.393   3.107   3.777 -1.0718 -0.2304  0.2119
 1450ETH     H4 6871   3.346   3.041   3.611  2.1063 -0.5513  0.5552
 1450ETH     H5 6872   3.323   3.247   3.539 -0.8758 -0.0602  0.4398
 1451ETH      C 6873   0.477   2.617   2.770 -0.0193  0.1043 -0.3176
 1451ETH     C1 6874   0.558   2.739   2.742 -0.3810 -0.3440  0.1428
 1451ETH      O 6875   0.621   2.788   2.865 -0.2582 -0.1417  0.0388
 1451ETH      H 6876   0.430   2.572   2.683 -2.8116  0.6829  0.7779
 1451ETH     H1 6877   0.392   2.652   2.829 -1.2980 -2.6268 -0.4030
 1451ETH     H2 6878   0.532   2.550   2.837 -1.5342  0.0942  0.9785
 1451ETH     H3 6879   0.644   2.715   2.677 -1.8745  0.3646 -2.2456
 1451ETH     H4 6880   0.495   2.815   2.694 -0.0285 -0.2365 -0.1529
 1451ETH     H5 6881   0.688   2.721   2.887  1.8121  0.7051 -2.9878
 1452ETH      C 6882   3.248   2.784   0.106  0.1229  0.5153  0.3966
 1452ETH     C1 6883   3.272   2.932   0.125  0.9272 -0.0276  0.1209
 1452ETH      O 6884   3.153   2.992   0.167 -0.1123 -0.8508 -0.4426
 1452ETH      H 6885   3.342   2.734   0.081 -0.8241 -0.7152 -0.7846
 1452ETH     H1 6886   3.181   2.759   0.023  0.9968 -2.3369  0.4635
 1452ETH     H2 6887   3.202   2.737   0.194 -1.2225  1.1007  0.0315
 1452ETH     H3 6888   3.340   2.940   0.211  1.7855 -1.5584 -0.3840
 1452ETH     H4 6889   3.309   2.982   0.035  1.6611  0.5781  0.7492
 1452ETH     H5 6890   3.097   2.996   0.088  0.1248  0.1472 -0.5760
 1453ETH      C 6891   2.935   1.528   2.383 -0.0641  0.3160  0.9057
 1453ETH     C1 6892   2.788   1.582   2.357 -0.6826  0.6154  0.1608
 1453ETH      O 6893   2.704   1.525   2.454  0.0955  0.1951 -0.0932
 1453ETH      H 6894   2.965   1.553   2.486  1.1140 -2.9668  1.5019
 1453ETH     H1 6895   3.012   1.577   2.322  0.1124 -0.5586  0.4144
 1453ETH     H2 6896   2.928   1.419   2.371  0.2549  0.2991  0.8543
 1453ETH     H3 6897   2.773   1.690   2.371 -1.5584  0.2621  2.5011
 1453ETH     H4 6898   2.761   1.551   2.256  2.7837  1.4424 -1.1532
 1453ETH     H5 6899   2.620   1.574   2.459 -2.3689 -3.1459 -3.2007
 1454ETH      C 6900   0.677   3.131   2.741  0.5389  0.5080  0.2902
 1454ETH     C1 6901   0.792   3.204   2.672 -0.2874 -0.3761 -0.5765
 1454ETH      O 6902   0.836   3.132   2.566  0.2237 -0.0351  0.2546
 1454ETH      H 6903   0.698   3.025   2.760  1.2407  0.7786  1.0822
 1454ETH     H1 6904   0.591   3.129   2.672 -0.3828 -1.2870  1.3831
 1454ETH     H2 6905   0.637   3.172   2.835 -0.9791  1.9218 -0.9230
 1454ETH     H3 6906   0.763   3.303   2.634  2.3523  1.0655  0.8449
 1454ETH     H4 6907   0.874   3.223   2.744 -1.7886  2.3735  0.5708
 1454ETH     H5 6908   0.926   3.105   2.589 -0.0444  0.1844  1.6925
 1455ETH      C 6909   3.528   0.945   1.863 -0.2531 -0.2217 -1.1649
 1455ETH     C1 6910   3.537   0.870   1.730  0.3112  0.4546  0.6210
 1455ETH      O 6911   3.654   0.785   1.737  0.5834  0.1053  0.7255
 1455ETH      H 6912   3.450   1.021   1.860 -1.3095 -1.1837  0.2320
 1455ETH     H1 6913   3.629   0.980   1.887  0.1894 -1.3694 -1.2892
 1455ETH     H2 6914   3.510   0.879   1.950  0.7653  0.4198 -0.4475
 1455ETH     H3 6915   3.446   0.811   1.712 -0.0912  1.2573 -0.0636
 1455ETH     H4 6916   3.545   0.948   1.653  1.6739  0.4199  0.7165
 1455ETH     H5 6917   3.736   0.838   1.736  2.5274 -2.6155 -0.2229
 1456ETH      C 6918   2.269   2.813   4.259  0.5640  0.8396 -0.1985
 1456ETH     C1 6919   2.278   2.956   4.309 -0.2477 -0.2895  0.4867
 1456ETH      O 6920   2.274   2.955   4.451 -0.2896 -0.0555  0.1752
 1456ETH      H 6921   2.174   2.779   4.302 -0.5884  1.2351 -2.2580
 1456ETH     H1 6922   2.347   2.748   4.300 -1.2725 -1.3558  0.0107
 1456ETH     H2 6923   2.272   2.809   4.149 -0.0955  1.3807 -0.2469
 1456ETH     H3 6924   2.378   2.994   4.282  0.1759 -0.3516  1.8934
 1456ETH     H4 6925   2.197   3.018   4.270 -1.3648 -1.6200  0.6363
 1456ETH     H5 6926   2.344   2.898   4.489  0.2437  0.0081 -0.6945
 1457ETH      C 6927   2.655   1.672   1.670 -0.4912 -0.2019  0.1041
 1457ETH     C1 6928   2.782   1.610   1.597  1.0279 -0.0091 -0.0377
 1457ETH      O 6929   2.859   1.706   1.526  0.1670  0.1441 -0.3781
 1457ETH      H 6930   2.584   1.725   1.606 -1.9855 -0.9504  1.0916
 1457ETH     H1 6931   2.683   1.747   1.744 -0.9209  0.3683 -0.3033
 1457ETH     H2 6932   2.607   1.594   1.729 -1.9207 -0.2471 -1.0649
 1457ETH     H3 6933   2.847   1.562   1.671 -1.6236  1.0206  3.2201
 1457ETH     H4 6934   2.743   1.540   1.523 -0.1671 -1.1523  1.6118
 1457ETH     H5 6935   2.857   1.676   1.433  0.0489  0.9667 -0.6552
 1458ETH      C 6936   3.611   1.521   0.814 -0.2746 -0.0521 -0.0040
 1458ETH     C1 6937   3.477   1.533   0.893  0.2649  0.3861  0.1172
 1458ETH      O 6938   3.384   1.425   0.873 -0.2488  0.0682 -0.8006
 1458ETH      H 6939   3.599   1.527   0.705 -0.0327 -1.7872 -0.1568
 1458ETH     H1 6940   3.656   1.423   0.831  0.4087 -0.2653 -2.6273
 1458ETH     H2 6941   3.692   1.583   0.854 -0.6226 -0.1947  0.9374
 1458ETH     H3 6942   3.497   1.539   1.001 -1.6073  2.8675  0.4132
 1458ETH     H4 6943   3.424   1.625   0.865 -2.6799 -1.6693 -1.6517
 1458ETH     H5 6944   3.433   1.351   0.832  0.5272  0.4621 -0.6058
 1459ETH      C 6945   3.256   1.213   1.118  0.4754  0.0634  0.2520
 1459ETH     C1 6946   3.154   1.114   1.059  0.0597  0.4216  0.1167
 1459ETH      O 6947   3.089   1.185   0.948  0.0696  0.0111  0.0761
 1459ETH      H 6948   3.319   1.244   1.034  2.2664  1.6829  2.0982
 1459ETH     H1 6949   3.318   1.168   1.196  1.6960 -1.0778 -1.2985
 1459ETH     H2 6950   3.209   1.302   1.161 -1.2405 -0.3344 -0.7032
 1459ETH     H3 6951   3.202   1.023   1.020  0.3006  0.1457  1.0215
 1459ETH     H4 6952   3.080   1.094   1.137 -1.4787  3.1207 -0.5296
 1459ETH     H5 6953   3.112   1.279   0.956 -0.1760 -0.0065  1.2321
 1460ETH      C 6954   2.683   1.754   0.845 -1.2477  0.3303 -0.1739
 1460ETH     C1 6955   2.790   1.660   0.883  0.5453 -0.2329  0.2683
 1460ETH      O 6956   2.914   1.684   0.817  0.4381  0.0361 -0.5326
 1460ETH      H 6957   2.662   1.743   0.738  1.0648 -0.9680 -0.5720
 1460ETH     H1 6958   2.706   1.856   0.877 -0.6822  0.3898 -0.7504
 1460ETH     H2 6959   2.596   1.723   0.904 -1.0993  0.0866 -0.0808
 1460ETH     H3 6960   2.815   1.669   0.990  0.7502  1.6961  0.0867
 1460ETH     H4 6961   2.759   1.559   0.854 -0.4753  0.3809 -0.8434
 1460ETH     H5 6962   2.977   1.623   0.859 -0.8171 -1.7483 -1.1341
 1461ETH      C 6963   3.286   0.645   4.005  0.6330 -0.2636 -0.3112
 1461ETH     C1 6964   3.150   0.644   3.930 -0.4692  0.3082 -0.5514
 1461ETH      O 6965   3.174   0.633   3.789  0.2043  0.4279  0.3903
 1461ETH      H 6966   3.356   0.724   3.977  1.9764 -0.0936  3.0774
 1461ETH     H1 6967   3.329   0.544   3.993 -2.2354 -1.4864 -1.2306
 1461ETH     H2 6968   3.261   0.654   4.111  2.0160  1.2814 -0.0882
 1461ETH     H3 6969   3.095   0.555   3.962  1.5074 -1.0213 -0.7098
 1461ETH     H4 6970   3.098   0.739   3.949 -0.7378  0.2647 -1.0313
 1461ETH     H5 6971   3.198   0.723   3.761 -0.2659  0.4483  0.0212
 1462ETH      C 6972   1.246   3.966   3.736 -0.3359 -0.0335  0.6116
 1462ETH     C1 6973   1.105   4.016   3.702  0.4285 -0.1591 -0.2910
 1462ETH      O 6974   1.026   3.897   3.706 -0.5887  0.3257 -0.6258
 1462ETH      H 6975   1.331   4.033   3.720 -0.9816  1.0028  1.4222
 1462ETH     H1 6976   1.274   3.875   3.681  1.0867  1.2708 -0.9014
 1462ETH     H2 6977   1.245   3.921   3.836 -0.9949 -3.2446 -0.6904
 1462ETH     H3 6978   1.070   4.090   3.775 -2.3170 -1.3234 -0.3323
 1462ETH     H4 6979   1.104   4.053   3.599 -1.6779 -1.6050 -0.8599
 1462ETH     H5 6980   0.953   3.911   3.768 -1.1525 -0.3550 -1.1170
 1463ETH      C 6981   1.957   3.203   2.952  0.6268 -0.3752 -0.0319
 1463ETH     C1 6982   2.078   3.111   2.978  0.1096  0.3014 -0.4699
 1463ETH      O 6983   2.163   3.099   2.867 -0.1402 -0.0716  0.3356
 1463ETH      H 6984   1.879   3.160   2.889 -1.5850  2.7060  0.3469
 1463ETH     H1 6985   1.980   3.292   2.893  3.1616 -0.7693  0.2272
 1463ETH     H2 6986   1.914   3.233   3.049 -0.0405  0.1150 -0.4700
 1463ETH     H3 6987   2.136   3.166   3.053  0.5240  0.8329 -1.1623
 1463ETH     H4 6988   2.054   3.015   3.024  0.8350  0.3911  0.1177
 1463ETH     H5 6989   2.114   3.051   2.798 -2.6022 -0.3615  2.1272
 1464ETH      C 6990   2.049   1.201   2.432  0.0598  0.1866  0.4563
 1464ETH     C1 6991   2.023   1.187   2.582  0.0720 -0.2436  0.0599
 1464ETH      O 6992   2.103   1.086   2.638 -0.2616  0.2189 -0.1295
 1464ETH      H 6993   2.071   1.302   2.395 -0.3477  1.7326  3.9886
 1464ETH     H1 6994   1.967   1.150   2.381 -0.7281 -0.5288  2.3460
 1464ETH     H2 6995   2.138   1.144   2.403 -0.3765  0.4362 -1.5006
 1464ETH     H3 6996   2.048   1.286   2.622  0.8076 -0.2820 -0.2718
 1464ETH     H4 6997   1.916   1.176   2.601 -0.1518  0.0735 -0.9625
 1464ETH     H5 6998   2.093   1.099   2.734 -0.2292 -0.5200 -0.0166
 1465ETH      C 6999   3.672   0.617   3.055 -0.6079  0.3892 -0.0660
 1465ETH     C1 7000   3.607   0.572   2.923 -0.6521  0.3465 -0.2169
 1465ETH      O 7001   3.567   0.432   2.940  0.0468  0.2380  0.2625
 1465ETH      H 7002   3.763   0.562   3.080  1.4340  1.5123 -4.0857
 1465ETH     H1 7003   3.603   0.627   3.139 -1.7828  0.1328 -0.9714
 1465ETH     H2 7004   3.704   0.721   3.045  2.5176 -0.4715  0.0960
 1465ETH     H3 7005   3.513   0.625   2.901 -0.4154  0.5600 -0.7222
 1465ETH     H4 7006   3.674   0.586   2.837 -1.0654 -1.3383 -0.8532
 1465ETH     H5 7007   3.479   0.440   2.981 -0.3114  1.3947 -0.6830
 1466ETH      C 7008   2.669   3.091   1.877  0.6258 -0.3440  0.2936
 1466ETH     C1 7009   2.716   2.970   1.799 -0.3356  0.3806 -0.4234
 1466ETH      O 7010   2.743   2.865   1.889 -0.4259 -0.2550 -0.5229
 1466ETH      H 7011   2.649   3.174   1.807 -0.0478  1.5532  2.6173
 1466ETH     H1 7012   2.752   3.122   1.942  0.5825  1.0392 -0.2695
 1466ETH     H2 7013   2.574   3.076   1.928  0.7438 -3.2392 -0.1731
 1466ETH     H3 7014   2.645   2.952   1.718  0.4415  1.3407 -1.3572
 1466ETH     H4 7015   2.807   3.001   1.745  0.5788  2.0422  1.9028
 1466ETH     H5 7016   2.838   2.864   1.910 -0.6770 -1.6414  0.7186
 1467ETH      C 7017   3.919   0.538   3.396 -0.1129  0.0376 -0.4704
 1467ETH     C1 7018   3.995   0.668   3.370  0.7810 -0.1251  0.6584
 1467ETH      O 7019   3.935   0.782   3.433 -0.1278 -0.1092 -0.2336
 1467ETH      H 7020   3.810   0.539   3.379 -0.3679  0.2070  1.0047
 1467ETH     H1 7021   3.936   0.494   3.495 -1.3063 -1.0966 -0.7347
 1467ETH     H2 7022   3.967   0.469   3.325 -2.4381 -1.1055 -1.0377
 1467ETH     H3 7023   4.096   0.645   3.406  0.9696 -0.3781 -0.0216
 1467ETH     H4 7024   3.995   0.688   3.263  1.6732  3.9029  1.2659
 1467ETH     H5 7025   3.994   0.854   3.404 -1.0171 -0.2536 -2.5659
 1468ETH      C 7026   3.970   0.032   2.634  0.3322  0.6089 -0.1017
 1468ETH     C1 7027   3.920   0.085   2.764 -0.1524 -0.1653 -0.2230
 1468ETH      O 7028   3.881  -0.019   2.853 -0.4528  0.3466  0.2709
 1468ETH      H 7029   4.066  -0.018   2.653  0.4561  1.2816  1.1224
 1468ETH     H1 7030   3.994   0.108   2.558  2.7852  1.7494  1.6697
 1468ETH     H2 7031   3.895  -0.040   2.600  1.5602 -1.3590  1.1940
 1468ETH     H3 7032   3.997   0.145   2.815  1.9004 -0.3857 -2.8759
 1468ETH     H4 7033   3.835   0.153   2.764 -0.7534 -0.8074  2.0023
 1468ETH     H5 7034   3.862   0.021   2.940  1.8848  1.3844  0.3887
 1469ETH      C 7035   0.576   3.801   0.228 -0.7446  0.7472  0.2861
 1469ETH     C1 7036   0.586   3.908   0.338  0.3605  0.4101  0.1981
 1469ETH      O 7037   0.496   3.870   0.441 -0.6192  0.4221  0.5640
 1469ETH      H 7038   0.602   3.696   0.248 -1.0967  0.8073  1.1075
 1469ETH     H1 7039   0.636   3.824   0.140 -0.7675 -2.8753 -0.8438
 1469ETH     H2 7040   0.473   3.798   0.190 -1.1092 -0.1783  1.2769
 1469ETH     H3 7041   0.689   3.917   0.375  1.0993  1.5202 -1.9411
 1469ETH     H4 7042   0.558   4.007   0.299 -1.5105 -0.3776 -0.5362
 1469ETH     H5 7043   0.409   3.905   0.417 -1.0805 -1.2390 -0.3505
 1470ETH      C 7044   1.120   1.477   3.819 -0.0852 -0.6771  0.9303
 1470ETH     C1 7045   1.180   1.389   3.711 -0.5791  0.2595 -0.2556
 1470ETH      O 7046   1.324   1.373   3.716 -0.4515  0.5504  0.1335
 1470ETH      H 7047   1.137   1.434   3.918  0.0441  1.7248  2.0342
 1470ETH     H1 7048   1.012   1.492   3.807  0.1536 -0.0121 -0.5761
 1470ETH     H2 7049   1.169   1.575   3.823 -0.5601 -0.3846 -0.0324
 1470ETH     H3 7050   1.128   1.292   3.719 -3.5453  1.8027  0.3295
 1470ETH     H4 7051   1.153   1.437   3.616 -1.5231  1.1714  0.4642
 1470ETH     H5 7052   1.341   1.315   3.793 -1.8610  0.9682  0.7960
 1471ETH      C 7053   1.567   2.584   3.975 -0.3022  0.1982 -0.0174
 1471ETH     C1 7054   1.680   2.505   3.905  0.9238  0.2441  0.4234
 1471ETH      O 7055   1.620   2.431   3.801  1.0747  0.2603  0.3738
 1471ETH      H 7056   1.604   2.633   4.065 -0.5564  0.7128 -0.1874
 1471ETH     H1 7057   1.488   2.511   3.995  1.5671 -1.6742  1.0058
 1471ETH     H2 7058   1.533   2.672   3.920  2.3461  1.9843  1.0009
 1471ETH     H3 7059   1.753   2.573   3.859  0.8738 -0.1983 -0.3277
 1471ETH     H4 7060   1.717   2.432   3.978 -2.1577 -0.6369  1.2295
 1471ETH     H5 7061   1.526   2.420   3.823  0.9152 -0.0493 -0.4419
 1472ETH      C 7062   3.956   3.742   3.671 -0.3084  0.0851 -0.1993
 1472ETH     C1 7063   3.953   3.703   3.817 -0.2487  0.1843  0.5212
 1472ETH      O 7064   3.826   3.723   3.875 -0.1158 -0.6711  0.4497
 1472ETH      H 7065   4.059   3.731   3.637  0.0298 -1.4304  1.1661
 1472ETH     H1 7066   3.923   3.841   3.640 -1.0917 -0.8962 -2.7619
 1472ETH     H2 7067   3.881   3.682   3.618 -0.4744  0.9571 -0.9662
 1472ETH     H3 7068   3.980   3.597   3.820 -0.3788  0.1302 -0.0265
 1472ETH     H4 7069   4.032   3.755   3.872  1.9380 -2.1025 -0.2512
 1472ETH     H5 7070   3.759   3.738   3.806 -0.6014 -1.1960  0.8034
 1473ETH      C 7071   0.650   0.739   2.400  0.5459  0.5810  0.1445
 1473ETH     C1 7072   0.638   0.785   2.548  0.4087 -0.0410  0.1476
 1473ETH      O 7073   0.559   0.689   2.618  0.0976 -0.3347 -0.2164
 1473ETH      H 7074   0.569   0.672   2.369 -0.4962  1.7928  0.1391
 1473ETH     H1 7075   0.747   0.698   2.368  0.0224  0.8554 -1.9762
 1473ETH     H2 7076   0.638   0.826   2.333  2.0108 -0.8074 -2.0820
 1473ETH     H3 7077   0.730   0.816   2.599  0.4666 -1.6947  1.1474
 1473ETH     H4 7078   0.584   0.879   2.533 -0.2365 -0.6726 -1.7625
 1473ETH     H5 7079   0.592   0.698   2.709  1.4415  0.4380 -0.7454
 1474ETH      C 7080   0.034   2.319   1.653 -0.1258  0.1174 -0.3280
 1474ETH     C1 7081   0.041   2.216   1.543  0.1106  0.6359  0.1766
 1474ETH      O 7082   0.123   2.100   1.570 -0.0325  0.0588  0.4872
 1474ETH      H 7083  -0.019   2.406   1.614  0.4185  0.4683 -0.3082
 1474ETH     H1 7084   0.140   2.336   1.676 -0.2698 -2.0013  2.3960
 1474ETH     H2 7085  -0.014   2.281   1.743  0.3402 -4.5493 -1.7897
 1474ETH     H3 7086  -0.059   2.184   1.510  0.3793 -0.5003  0.4259
 1474ETH     H4 7087   0.087   2.258   1.453  3.7428  1.2916  2.1471
 1474ETH     H5 7088   0.101   2.059   1.655  1.9011 -1.7051  0.2054
 1475ETH      C 7089   3.512   0.557   2.006  0.5541  0.4330 -0.6063
 1475ETH     C1 7090   3.402   0.567   2.114 -0.6902 -0.0215 -0.3043
 1475ETH      O 7091   3.473   0.518   2.232  0.1476 -0.0522 -0.0933
 1475ETH      H 7092   3.588   0.631   2.033  0.4128  0.5492 -0.5250
 1475ETH     H1 7093   3.480   0.581   1.904  0.5985 -0.9390 -0.9623
 1475ETH     H2 7094   3.548   0.454   2.001  2.1708  0.9832 -1.0286
 1475ETH     H3 7095   3.370   0.672   2.124 -1.4918 -0.1405 -1.3719
 1475ETH     H4 7096   3.325   0.494   2.086  0.1109 -0.5846 -1.0685
 1475ETH     H5 7097   3.532   0.589   2.262  0.7991 -0.3720 -0.5942
 1476ETH      C 7098   0.237   0.914   2.331 -0.4666 -0.1113 -0.3454
 1476ETH     C1 7099   0.324   0.864   2.209  0.1917 -0.1269 -0.6244
 1476ETH      O 7100   0.256   0.879   2.089 -0.3053 -0.2490  0.5940
 1476ETH      H 7101   0.161   0.841   2.359 -2.5342  2.2351  0.5283
 1476ETH     H1 7102   0.198   1.015   2.310  0.3564  0.3593  0.3571
 1476ETH     H2 7103   0.302   0.926   2.418 -0.4801  1.6544 -0.5386
 1476ETH     H3 7104   0.412   0.928   2.201  0.1443  0.0548  0.2622
 1476ETH     H4 7105   0.335   0.756   2.221  0.4870 -0.0817 -0.4926
 1476ETH     H5 7106   0.312   0.842   2.019 -1.0313 -0.2507 -0.0023
 1477ETH      C 7107   0.182   0.138   1.682  0.3302  0.7332  0.0228
 1477ETH     C1 7108   0.035   0.118   1.702  0.0448 -0.1927  0.5046
 1477ETH      O 7109  -0.024   0.197   1.599 -0.1962 -0.2057  0.0611
 1477ETH      H 7110   0.211   0.093   1.587 -2.5937 -0.4062 -0.4352
 1477ETH     H1 7111   0.230   0.074   1.758  1.3644  0.6243 -0.7018
 1477ETH     H2 7112   0.217   0.240   1.701  1.6905  0.0731  1.3755
 1477ETH     H3 7113   0.010   0.013   1.682 -2.9168  0.8924 -2.1541
 1477ETH     H4 7114   0.010   0.164   1.799  0.2999 -2.7127  1.8799
 1477ETH     H5 7115  -0.008   0.290   1.620  0.4572 -0.2643 -0.1448
 1478ETH      C 7116   2.614   2.351   3.728  0.0297 -0.1219  0.2192
 1478ETH     C1 7117   2.543   2.304   3.600 -1.2108 -0.2625 -0.2802
 1478ETH      O 7118   2.463   2.408   3.537 -0.0529 -0.1409 -0.2242
 1478ETH      H 7119   2.666   2.266   3.775  0.0653 -0.7533 -0.9336
 1478ETH     H1 7120   2.539   2.384   3.801  0.7720  0.1507  0.8853
 1478ETH     H2 7121   2.696   2.423   3.711  2.4733 -3.0341 -1.4030
 1478ETH     H3 7122   2.616   2.273   3.525 -1.6199  0.2085 -0.8845
 1478ETH     H4 7123   2.490   2.210   3.625 -1.3491  0.0544  0.6449
 1478ETH     H5 7124   2.516   2.483   3.506  0.6074 -0.8548 -0.8737
 1479ETH      C 7125   4.007   1.547   1.073 -0.0344 -0.0448 -0.1214
 1479ETH     C1 7126   4.032   1.422   0.985 -0.0438  0.4737  0.5012
 1479ETH      O 7127   4.121   1.460   0.875 -0.0970 -0.1912 -0.2963
 1479ETH      H 7128   4.097   1.595   1.113 -1.6792  1.7994  1.5559
 1479ETH     H1 7129   3.942   1.526   1.158  0.8924 -2.8599  0.0056
 1479ETH     H2 7130   3.952   1.621   1.014 -0.9415  0.1568  0.9529
 1479ETH     H3 7131   4.082   1.341   1.041 -1.2158  0.8154  2.1347
 1479ETH     H4 7132   3.936   1.376   0.958  0.3313  1.0267 -1.9870
 1479ETH     H5 7133   4.071   1.529   0.829 -0.3759  0.6758  1.2460
 1480ETH      C 7134   1.964   2.225   2.139 -0.2997  0.4142 -0.3279
 1480ETH     C1 7135   1.958   2.379   2.153  0.7632 -0.0570  0.1563
 1480ETH      O 7136   1.991   2.418   2.281  0.0487 -0.1485 -0.3824
 1480ETH      H 7137   1.902   2.174   2.213  0.6809 -1.0144 -0.4362
 1480ETH     H1 7138   2.068   2.192   2.125 -0.8736 -1.0690 -1.4319
 1480ETH     H2 7139   1.922   2.202   2.040 -1.8535  2.9841 -0.3359
 1480ETH     H3 7140   2.023   2.412   2.071 -0.0639 -1.7934 -1.2604
 1480ETH     H4 7141   1.856   2.413   2.131  0.2694  0.3570  2.8412
 1480ETH     H5 7142   2.079   2.381   2.297 -0.3873 -1.0438 -0.0155
 1481ETH      C 7143   3.568   0.064   4.225  0.7673 -0.5259 -0.2971
 1481ETH     C1 7144   3.476   0.077   4.348  0.1631  0.5053 -0.4570
 1481ETH      O 7145   3.542   0.029   4.469 -0.0374  0.0808 -0.6690
 1481ETH      H 7146   3.655   0.131   4.234 -0.2691  0.5657  2.7666
 1481ETH     H1 7147   3.506   0.086   4.137 -2.3752 -0.6610  1.7299
 1481ETH     H2 7148   3.589  -0.043   4.219 -2.4564 -1.4025  1.9447
 1481ETH     H3 7149   3.452   0.184   4.347 -0.0067  0.5148  1.6116
 1481ETH     H4 7150   3.386   0.019   4.325 -0.4808  1.0556  0.6150
 1481ETH     H5 7151   3.479   0.054   4.538  1.0236 -1.1189  0.8008
 1482ETH      C 7152   2.552   2.110   1.114 -0.5166 -0.1850  0.4354
 1482ETH     C1 7153   2.581   2.136   1.266 -0.0483  0.3684 -0.7058
 1482ETH      O 7154   2.594   2.002   1.323 -0.2196 -0.4882 -0.1234
 1482ETH      H 7155   2.524   2.205   1.066  2.3342 -1.2581 -4.0022
 1482ETH     H1 7156   2.473   2.034   1.106 -0.4840 -0.2945  1.1502
 1482ETH     H2 7157   2.635   2.063   1.058 -1.2226  0.0751 -0.8778
 1482ETH     H3 7158   2.672   2.197   1.274 -0.0931  0.3485  0.0964
 1482ETH     H4 7159   2.502   2.195   1.313 -1.2781  0.1947 -2.4678
 1482ETH     H5 7160   2.610   2.009   1.419  0.6071 -2.4379 -0.0699
 1483ETH      C 7161   3.942   0.910   2.910  0.3624 -0.5985  0.4001
 1483ETH     C1 7162   4.000   0.962   3.038  0.1502  0.4068 -0.8911
 1483ETH      O 7163   4.013   1.106   3.029  0.5554  0.6378  0.5788
 1483ETH      H 7164   3.920   0.803   2.918 -0.7395 -0.4258 -0.0632
 1483ETH     H1 7165   4.004   0.929   2.822 -0.1541  1.1053  0.3562
 1483ETH     H2 7166   3.847   0.963   2.892 -0.2231 -2.1267 -1.2714
 1483ETH     H3 7167   3.933   0.934   3.120 -0.9197  2.5965 -0.9550
 1483ETH     H4 7168   4.098   0.916   3.056 -1.2081 -1.4833  2.5543
 1483ETH     H5 7169   3.927   1.131   2.992 -1.0594 -1.3648  2.6725
 1484ETH      C 7170   1.253   0.317   3.077 -0.2053 -0.0104  0.0166
 1484ETH     C1 7171   1.148   0.311   3.191 -0.8500 -0.9287 -0.0689
 1484ETH      O 7172   1.210   0.383   3.302  0.5287 -0.1156 -0.3712
 1484ETH      H 7173   1.266   0.418   3.036 -1.6146  0.3136  0.3282
 1484ETH     H1 7174   1.218   0.256   2.993  2.0141  2.0525 -2.6443
 1484ETH     H2 7175   1.347   0.279   3.118  0.7187  2.8233  0.7485
 1484ETH     H3 7176   1.056   0.359   3.156 -0.3986 -0.2616 -0.3608
 1484ETH     H4 7177   1.124   0.209   3.223 -1.0132 -0.7387  0.4295
 1484ETH     H5 7178   1.269   0.316   3.340  0.7145  1.5810  2.7036
 1485ETH      C 7179   0.680   0.136   4.197  0.4312 -0.1059  0.3886
 1485ETH     C1 7180   0.599   0.223   4.294 -0.2164  0.4648 -0.0479
 1485ETH      O 7181   0.612   0.363   4.258 -0.7039 -0.3791  0.0088
 1485ETH      H 7182   0.650   0.164   4.095 -0.0936 -0.6469  0.3858
 1485ETH     H1 7183   0.665   0.028   4.211  1.2897 -0.2922 -0.0447
 1485ETH     H2 7184   0.787   0.156   4.188  1.1422 -2.0158  3.2439
 1485ETH     H3 7185   0.493   0.201   4.281  0.3843 -2.1819 -1.1332
 1485ETH     H4 7186   0.624   0.201   4.398  1.5232 -0.2214 -0.5638
 1485ETH     H5 7187   0.703   0.382   4.287 -0.4660 -0.0206 -0.9455
 1486ETH      C 7188   0.729   0.556   1.151  0.1145 -1.1292 -0.3469
 1486ETH     C1 7189   0.774   0.439   1.073 -0.2096 -0.3136  0.5880
 1486ETH      O 7190   0.668   0.427   0.971  0.3560 -0.9633 -0.2826
 1486ETH      H 7191   0.810   0.584   1.218 -0.0808 -0.2509 -0.4706
 1486ETH     H1 7192   0.646   0.530   1.217  1.3225 -1.8083  0.9646
 1486ETH     H2 7193   0.711   0.642   1.086  1.5124 -1.3497 -1.0652
 1486ETH     H3 7194   0.872   0.464   1.031 -1.0920  1.5244 -0.4670
 1486ETH     H4 7195   0.777   0.347   1.133  0.0764 -1.1007 -0.6032
 1486ETH     H5 7196   0.708   0.399   0.887 -1.2661 -2.6169 -0.5619
 1487ETH      C 7197   1.453   0.956   2.606 -0.1515 -0.6071  0.1018
 1487ETH     C1 7198   1.427   0.975   2.462 -0.0524 -0.2866  0.6613
 1487ETH      O 7199   1.466   1.111   2.419 -0.3326 -0.4875  0.5112
 1487ETH      H 7200   1.400   1.036   2.659 -1.7986 -1.4751 -0.1729
 1487ETH     H1 7201   1.559   0.966   2.633 -0.1824  2.2908 -0.5656
 1487ETH     H2 7202   1.418   0.858   2.641  0.5977 -1.1211 -0.5651
 1487ETH     H3 7203   1.479   0.900   2.401 -2.6997 -1.6804 -0.0112
 1487ETH     H4 7204   1.324   0.943   2.448  0.6388 -2.0848 -0.6173
 1487ETH     H5 7205   1.419   1.137   2.338 -0.4970 -0.1914  0.6997
 1488ETH      C 7206   0.424   3.162   1.682  0.2859  0.3981  0.1669
 1488ETH     C1 7207   0.282   3.141   1.721  0.0630  0.6842 -0.4331
 1488ETH      O 7208   0.245   3.000   1.725 -0.2276  0.0143  0.3169
 1488ETH      H 7209   0.496   3.126   1.757 -2.4229 -1.3588  2.1131
 1488ETH     H1 7210   0.445   3.268   1.668 -2.0860  0.8625 -0.1310
 1488ETH     H2 7211   0.440   3.119   1.582 -1.9353 -0.1235 -0.0142
 1488ETH     H3 7212   0.274   3.200   1.813  0.6405  1.9189 -1.1502
 1488ETH     H4 7213   0.215   3.196   1.654  1.3118  1.5931 -0.9778
 1488ETH     H5 7214   0.191   2.982   1.804 -2.5060 -4.1560 -1.8616
 1489ETH      C 7215   0.660   0.900   1.372  0.0487  0.2875 -0.2342
 1489ETH     C1 7216   0.575   0.977   1.257 -0.1904  0.4329 -0.2232
 1489ETH      O 7217   0.619   0.926   1.126 -0.1387 -0.4156 -0.3661
 1489ETH      H 7218   0.609   0.914   1.468  0.8697  3.1284 -0.1206
 1489ETH     H1 7219   0.766   0.926   1.375  0.3763 -1.0434  0.6450
 1489ETH     H2 7220   0.648   0.792   1.359  1.0588  0.2309 -0.8099
 1489ETH     H3 7221   0.467   0.959   1.267 -0.5604  3.3745  2.4985
 1489ETH     H4 7222   0.574   1.086   1.271 -1.7306  0.2103  1.9216
 1489ETH     H5 7223   0.696   0.978   1.098  0.1506  0.4204  1.7583
 1490ETH      C 7224   0.036   3.038   3.791  0.2625  0.4865 -0.4696
 1490ETH     C1 7225   0.081   2.891   3.823  0.5519  0.7739 -0.3080
 1490ETH      O 7226   0.221   2.885   3.847 -0.7726  0.1531 -0.2415
 1490ETH      H 7227  -0.072   3.051   3.798  0.2510  0.0688  0.2148
 1490ETH     H1 7228   0.071   3.069   3.692  0.0247  0.8172 -0.4508
 1490ETH     H2 7229   0.079   3.111   3.861 -0.6486  1.7431 -1.1832
 1490ETH     H3 7230   0.026   2.854   3.910  3.9219  2.0027  2.5930
 1490ETH     H4 7231   0.044   2.831   3.739  0.3245  0.8554 -0.2693
 1490ETH     H5 7232   0.239   2.789   3.847  0.2175  0.1957  3.6174
 1491ETH      C 7233   1.760   2.091   2.542  0.2049 -0.3513 -0.6647
 1491ETH     C1 7234   1.650   1.987   2.541 -0.3473  0.6568  0.2656
 1491ETH      O 7235   1.533   2.033   2.609  0.1047  0.0385 -0.6717
 1491ETH      H 7236   1.796   2.107   2.644 -0.0557 -0.6097 -0.5313
 1491ETH     H1 7237   1.727   2.189   2.506  0.4879 -0.2141 -0.5570
 1491ETH     H2 7238   1.839   2.073   2.468  1.0436  2.9409 -0.7352
 1491ETH     H3 7239   1.624   1.966   2.436 -1.1382 -1.5050  0.8477
 1491ETH     H4 7240   1.682   1.887   2.570 -1.2213 -0.6531 -2.8435
 1491ETH     H5 7241   1.497   2.111   2.563 -1.0943  0.4759  0.8768
 1492ETH      C 7242   1.166   2.870   0.358 -0.0032  0.2304 -0.3964
 1492ETH     C1 7243   1.207   2.983   0.263 -0.7463  0.1977  0.2679
 1492ETH      O 7244   1.346   2.973   0.251 -0.0151  0.3456  0.0061
 1492ETH      H 7245   1.058   2.873   0.378 -0.1038 -1.0735 -0.6368
 1492ETH     H1 7246   1.220   2.880   0.454  2.2317  0.3624 -1.5996
 1492ETH     H2 7247   1.190   2.774   0.311 -1.6706 -0.0351 -0.7519
 1492ETH     H3 7248   1.176   2.961   0.160 -0.0205 -0.8824  0.2574
 1492ETH     H4 7249   1.179   3.086   0.285 -0.7840  0.5869 -1.4747
 1492ETH     H5 7250   1.384   3.038   0.312  1.2331 -0.4503  0.0989
 1493ETH      C 7251   3.559   3.181   0.078 -0.1015 -0.1557 -0.2953
 1493ETH     C1 7252   3.589   3.108   0.212  0.2981 -0.4516 -0.3026
 1493ETH      O 7253   3.728   3.113   0.233  0.0535  0.3068 -0.5044
 1493ETH      H 7254   3.612   3.139  -0.008 -0.4983  1.8597 -1.5777
 1493ETH     H1 7255   3.583   3.287   0.095 -0.5087 -0.0521 -0.3497
 1493ETH     H2 7256   3.455   3.160   0.053 -0.5657  1.0095  0.5602
 1493ETH     H3 7257   3.542   3.166   0.292  1.8230 -0.4060  0.5818
 1493ETH     H4 7258   3.544   3.009   0.233  2.3125 -1.1835  0.8138
 1493ETH     H5 7259   3.734   3.096   0.329  2.0214 -0.9628 -0.7785
 1494ETH      C 7260   1.153   3.610   2.979 -0.3248  0.0301 -0.3535
 1494ETH     C1 7261   1.309   3.604   2.983 -0.0896  0.2426  0.0476
 1494ETH      O 7262   1.346   3.459   2.975  0.5617 -0.8454  0.6191
 1494ETH      H 7263   1.111   3.553   3.062 -0.0118  1.4039  0.8041
 1494ETH     H1 7264   1.122   3.577   2.879  0.0458 -0.0812 -0.4348
 1494ETH     H2 7265   1.116   3.713   2.992 -0.8123 -0.4428  2.5933
 1494ETH     H3 7266   1.356   3.661   2.902  1.8184  0.5134  1.2801
 1494ETH     H4 7267   1.345   3.649   3.076  0.5303 -0.4572  0.1566
 1494ETH     H5 7268   1.419   3.454   2.911 -0.9602  2.1914 -1.6319
 1495ETH      C 7269   4.188   2.557   0.588 -0.6287  0.4489 -1.6498
 1495ETH     C1 7270   4.300   2.614   0.681 -0.7914  0.2824 -0.6315
 1495ETH      O 7271   4.310   2.759   0.662  0.0417 -0.2424  0.1139
 1495ETH      H 7272   4.204   2.607   0.491  2.0742  2.6579 -0.2051
 1495ETH     H1 7273   4.090   2.583   0.631  0.6590  1.8568  0.6066
 1495ETH     H2 7274   4.187   2.448   0.584 -0.5021  0.3844 -0.2406
 1495ETH     H3 7275   4.277   2.594   0.787 -0.1916  2.5650 -0.0024
 1495ETH     H4 7276   4.396   2.566   0.660 -0.1149  2.4322 -2.8606
 1495ETH     H5 7277   4.222   2.787   0.632 -0.7006  1.2474  3.2967
 1496ETH      C 7278   2.944   0.284   2.039 -0.1825  0.5323  1.0175
 1496ETH     C1 7279   3.004   0.422   2.067  0.1289 -0.1142  0.3015
 1496ETH      O 7280   2.937   0.479   2.175  0.0150 -0.0994 -0.4010
 1496ETH      H 7281   2.845   0.278   1.993  0.3742 -1.3854 -0.0765
 1496ETH     H1 7282   2.932   0.217   2.125 -2.7134  0.2503  0.5054
 1496ETH     H2 7283   3.018   0.242   1.970  0.0938 -0.8430  2.0901
 1496ETH     H3 7284   3.112   0.416   2.085  0.1902 -2.1428 -0.4143
 1496ETH     H4 7285   2.993   0.483   1.976  0.6821 -1.2826 -0.5814
 1496ETH     H5 7286   2.902   0.568   2.160 -0.0978 -0.2236 -0.8746
 1497ETH      C 7287   3.546   2.411   0.401  0.0616  0.1933 -0.0802
 1497ETH     C1 7288   3.417   2.392   0.483 -0.2102  0.5324 -0.0776
 1497ETH      O 7289   3.354   2.516   0.508 -0.1263  0.3181 -0.1314
 1497ETH      H 7290   3.614   2.489   0.437  0.3763  0.5974 -1.5009
 1497ETH     H1 7291   3.513   2.451   0.305  1.0403 -1.1881 -1.0435
 1497ETH     H2 7292   3.607   2.320   0.395 -1.1616 -0.7217  0.7955
 1497ETH     H3 7293   3.351   2.337   0.415  1.1337 -0.4111 -0.6589
 1497ETH     H4 7294   3.424   2.333   0.575 -2.4707 -1.3572 -1.0186
 1497ETH     H5 7295   3.290   2.502   0.580 -0.7704 -2.2639 -1.1147
 1498ETH      C 7296   0.731   4.130   3.485 -0.3951 -0.1762 -0.2013
 1498ETH     C1 7297   0.678   3.994   3.517 -0.2949 -0.3052 -0.1033
 1498ETH      O 7298   0.580   4.011   3.623 -0.1170  0.0560 -0.2799
 1498ETH      H 7299   0.815   4.131   3.415  0.1277 -0.4844  0.4078
 1498ETH     H1 7300   0.763   4.175   3.580  0.3885  0.6330 -0.8339
 1498ETH     H2 7301   0.658   4.202   3.446 -0.4766 -0.5104 -0.6688
 1498ETH     H3 7302   0.632   3.951   3.427 -1.9374 -1.5013  1.2359
 1498ETH     H4 7303   0.765   3.933   3.546  0.0959  0.9889  1.5406
 1498ETH     H5 7304   0.497   4.037   3.579  0.9590 -1.6714 -3.7442
 1499ETH      C 7305   2.173   3.434   3.311 -0.4193  0.1915  0.2919
 1499ETH     C1 7306   2.216   3.558   3.396  0.2535 -0.7690 -0.4891
 1499ETH      O 7307   2.127   3.664   3.369 -0.6154 -0.0445 -0.1278
 1499ETH      H 7308   2.077   3.395   3.348  1.3571 -1.0076  4.1001
 1499ETH     H1 7309   2.248   3.356   3.323 -0.6141  0.0369  0.5161
 1499ETH     H2 7310   2.169   3.451   3.203 -2.1648 -1.2785  0.0757
 1499ETH     H3 7311   2.215   3.524   3.501  1.8740 -1.0976 -0.5567
 1499ETH     H4 7312   2.318   3.594   3.377 -0.1404 -0.5954 -2.4235
 1499ETH     H5 7313   2.165   3.728   3.306 -2.1425 -0.0068 -1.0470
 1500ETH      C 7314   1.269   0.473   2.728 -0.2868 -0.4859 -0.2096
 1500ETH     C1 7315   1.154   0.447   2.619  0.3856  0.2807 -0.2973
 1500ETH      O 7316   1.041   0.376   2.679 -0.0384 -0.9717  0.0719
 1500ETH      H 7317   1.333   0.385   2.742  1.2362  0.6999  0.5880
 1500ETH     H1 7318   1.219   0.502   2.821 -0.0446  2.6580 -0.9432
 1500ETH     H2 7319   1.333   0.553   2.689 -1.0964  0.0691 -0.4200
 1500ETH     H3 7320   1.109   0.545   2.598 -1.2962 -0.0766  1.4231
 1500ETH     H4 7321   1.184   0.406   2.521 -0.5139 -1.7594  0.2170
 1500ETH     H5 7322   1.063   0.283   2.695  0.3320 -0.5731  2.0947
 1501ETH      C 7323   0.397   4.020   1.829  0.4850  1.1861  0.1186
 1501ETH     C1 7324   0.441   3.876   1.789 -0.4605  0.5342  0.1281
 1501ETH      O 7325   0.370   3.776   1.858  0.1450 -0.1799 -0.4624
 1501ETH      H 7326   0.462   4.085   1.770  0.7108 -1.5462 -2.9269
 1501ETH     H1 7327   0.409   4.040   1.936 -1.0429  4.1064 -0.1491
 1501ETH     H2 7328   0.294   4.047   1.800  0.0665 -0.5792 -0.1819
 1501ETH     H3 7329   0.429   3.866   1.680  2.2032  2.5991 -0.4762
 1501ETH     H4 7330   0.549   3.867   1.804 -0.1281 -0.0349 -2.2372
 1501ETH     H5 7331   0.394   3.786   1.952 -0.1502  1.6137 -0.5528
 1502ETH      C 7332   1.485   2.369   2.121 -0.5816 -0.1683  1.4486
 1502ETH     C1 7333   1.442   2.319   2.258 -0.2818 -0.3499  0.4136
 1502ETH      O 7334   1.465   2.428   2.352  0.3364  0.3447  0.7555
 1502ETH      H 7335   1.437   2.465   2.099 -0.0812 -0.4547 -1.3170
 1502ETH     H1 7336   1.453   2.294   2.048  1.9470 -0.8564  0.9346
 1502ETH     H2 7337   1.593   2.388   2.114 -0.7630  0.3460 -3.4288
 1502ETH     H3 7338   1.340   2.278   2.261  0.0298 -1.3408 -1.4251
 1502ETH     H4 7339   1.502   2.232   2.287 -0.4238 -1.1053 -1.4714
 1502ETH     H5 7340   1.555   2.436   2.388  0.4628 -0.0043  0.5243
 1503ETH      C 7341   3.277   2.869   2.811 -0.4810  0.1447  0.2297
 1503ETH     C1 7342   3.201   2.738   2.764  0.6228 -0.2429  0.1868
 1503ETH      O 7343   3.221   2.645   2.875 -0.5959 -1.1347 -0.5804
 1503ETH      H 7344   3.382   2.864   2.842 -0.1759 -0.0795 -0.7893
 1503ETH     H1 7345   3.222   2.911   2.896 -0.2692  1.5989 -0.3150
 1503ETH     H2 7346   3.264   2.941   2.730 -0.7519 -2.0212 -1.7556
 1503ETH     H3 7347   3.095   2.765   2.757 -0.0799 -2.7445  0.3822
 1503ETH     H4 7348   3.246   2.694   2.674  2.8309  3.8120 -0.9581
 1503ETH     H5 7349   3.306   2.649   2.921 -1.6676  1.0545  1.4371
 1504ETH      C 7350   3.796   3.903   2.947  0.1263 -0.1357  0.7720
 1504ETH     C1 7351   3.671   3.995   2.930 -0.3130 -0.1586 -0.2349
 1504ETH      O 7352   3.593   3.988   3.053  0.3823  0.3764 -0.0217
 1504ETH      H 7353   3.767   3.799   2.928 -0.2824  0.4139 -2.2447
 1504ETH     H1 7354   3.838   3.900   3.048  0.8890 -0.4785  0.4494
 1504ETH     H2 7355   3.870   3.950   2.882 -1.3587  1.5649  0.2054
 1504ETH     H3 7356   3.705   4.099   2.917  1.2907 -0.7695 -1.1825
 1504ETH     H4 7357   3.616   3.966   2.839 -0.5664 -0.8870  0.1432
 1504ETH     H5 7358   3.537   4.067   3.044  1.1344  1.2179  2.0598
 1505ETH      C 7359   2.552   3.273   1.329 -0.0089  0.3981 -0.0493
 1505ETH     C1 7360   2.584   3.300   1.479 -0.0926 -0.1763  0.6169
 1505ETH      O 7361   2.717   3.357   1.477  0.3520 -0.2032 -0.3069
 1505ETH      H 7362   2.521   3.357   1.266  0.2529  0.1716 -0.4856
 1505ETH     H1 7363   2.475   3.196   1.323  0.7383 -0.2982 -1.0161
 1505ETH     H2 7364   2.632   3.213   1.283  0.0260  1.3405 -1.2685
 1505ETH     H3 7365   2.509   3.361   1.531 -1.4808 -0.9759 -0.3833
 1505ETH     H4 7366   2.594   3.202   1.527 -2.5848 -1.2871 -0.9424
 1505ETH     H5 7367   2.714   3.438   1.530 -0.5239 -1.1246  1.1320
 1506ETH      C 7368   0.181   3.304   3.256  0.4086 -0.3057 -0.0936
 1506ETH     C1 7369   0.073   3.393   3.318 -0.6986  0.2838  0.5254
 1506ETH      O 7370  -0.058   3.356   3.270  0.1842  0.3692  0.0178
 1506ETH      H 7371   0.283   3.323   3.291  0.9279 -0.7939 -1.2731
 1506ETH     H1 7372   0.186   3.300   3.146 -0.8606  0.6145 -0.2131
 1506ETH     H2 7373   0.152   3.202   3.283  0.0223  0.3477  2.1768
 1506ETH     H3 7374   0.072   3.396   3.428  0.7000 -2.9421  0.7270
 1506ETH     H4 7375   0.096   3.497   3.292  0.6099  0.0964  0.8626
 1506ETH     H5 7376  -0.056   3.261   3.250 -0.3254  0.5482 -0.9306
 1507ETH      C 7377   3.875   3.900   2.173 -0.0751  0.2093 -0.7091
 1507ETH     C1 7378   3.959   4.012   2.221  0.8140 -0.0019  0.7961
 1507ETH      O 7379   4.093   3.967   2.242  0.0463 -0.4578 -0.2439
 1507ETH      H 7380   3.861   3.824   2.251  0.7436  1.1635  0.4086
 1507ETH     H1 7381   3.913   3.858   2.079  0.6032 -0.2527 -0.2430
 1507ETH     H2 7382   3.778   3.948   2.156  0.0461  0.5533 -0.4526
 1507ETH     H3 7383   3.954   4.098   2.153  1.8322 -0.4202  0.1608
 1507ETH     H4 7384   3.903   4.041   2.311 -0.7321  0.6448 -0.3186
 1507ETH     H5 7385   4.143   3.962   2.159  1.1449  4.2522 -0.1186
 1508ETH      C 7386   2.983   1.764   2.748  0.3977 -0.2142  0.1438
 1508ETH     C1 7387   3.041   1.650   2.822 -0.1067  0.1075 -0.7722
 1508ETH      O 7388   3.000   1.526   2.765  0.4677 -0.2149 -0.0655
 1508ETH      H 7389   3.020   1.770   2.644 -2.5425 -0.2841 -0.9961
 1508ETH     H1 7390   3.012   1.862   2.788  1.5711 -1.1001  1.5622
 1508ETH     H2 7391   2.874   1.764   2.747  0.3897 -0.9249 -0.6881
 1508ETH     H3 7392   3.151   1.655   2.819 -0.0590 -0.7752 -0.8682
 1508ETH     H4 7393   3.013   1.651   2.928  0.6418 -0.1297 -0.5627
 1508ETH     H5 7394   2.904   1.512   2.764  0.5684 -0.9930  0.5576
 1509ETH      C 7395   0.057   3.331   2.896 -0.0127  0.3053 -0.1930
 1509ETH     C1 7396   0.182   3.339   2.813 -0.2862 -0.8051  0.0792
 1509ETH      O 7397   0.177   3.259   2.695 -0.2385 -0.0238  0.0559
 1509ETH      H 7398   0.041   3.228   2.932 -0.0396  0.7905  1.2420
 1509ETH     H1 7399  -0.024   3.361   2.829  1.5904 -0.2385 -2.5129
 1509ETH     H2 7400   0.068   3.402   2.978  1.1117 -1.0029  0.8334
 1509ETH     H3 7401   0.189   3.442   2.777 -0.2271 -1.7551 -2.8975
 1509ETH     H4 7402   0.271   3.323   2.876 -0.6336 -0.4383  0.6773
 1509ETH     H5 7403   0.193   3.168   2.725 -0.0258  0.2577  0.8137
 1510ETH      C 7404   0.812   1.905   0.331 -0.4470 -0.3017  0.6624
 1510ETH     C1 7405   0.742   1.789   0.399 -0.4337 -0.0872 -0.0056
 1510ETH      O 7406   0.604   1.793   0.384 -0.0386  0.3774 -0.2463
 1510ETH      H 7407   0.906   1.924   0.384 -0.6772 -0.2311  1.0570
 1510ETH     H1 7408   0.765   2.004   0.323  0.4610  0.0368 -0.7665
 1510ETH     H2 7409   0.828   1.880   0.226 -0.3351  2.3209 -0.0162
 1510ETH     H3 7410   0.792   1.698   0.363 -0.9560 -0.2947 -0.2152
 1510ETH     H4 7411   0.770   1.784   0.505  1.0988 -1.8773 -0.4499
 1510ETH     H5 7412   0.570   1.759   0.468 -1.5608  0.5479 -0.7469
   4.26148   4.26148   4.26148
