CLS
 2120
    1CLSA    H1    1   0.299  12.091   6.538
    1CLSA    C1    2   0.387  12.072   6.601
    1CLSA    C2    3   0.661  12.080   6.677
    1CLSA    C3    4   0.448  12.206   6.649
    1CLSA    C4    5   0.486  11.987   6.522
    1CLSA    C5    6   0.608  11.950   6.608
    1CLSA    H2    7   0.768  12.092   6.653
    1CLSA    H3    8   0.350  12.015   6.686
    1CLSA    H4    9   0.520  12.042   6.433
    1CLSA    H5   10   0.572  11.885   6.689
    1CLSA    H6   11   0.415  12.283   6.577
    1CLSA    O1   12   0.417  11.870   6.484
    1CLSA    H7   13   0.486  11.812   6.445
    1CLSA    O2   14   0.709  11.880   6.532
    1CLSA    H8   15   0.788  11.865   6.592
    1CLSA    O3   16   0.592  12.199   6.635
    1CLSA    C6   17   0.405  12.255   6.790
    1CLSA    H9   18   0.466  12.343   6.815
    1CLSA   H10   19   0.300  12.289   6.787
    1CLSA    O4   20   0.418  12.156   6.893
    1CLSA   H11   21   0.507  12.111   6.870
    1CLSA    O5   22   0.643  12.068   6.818
    2CLSB    C7   23   0.761  12.096   6.894
    2CLSB    C8   24   0.855  12.237   7.074
    2CLSB    C9   25   0.725  12.206   6.995
    2CLSB   C10   26   0.815  11.967   6.963
    2CLSB   C11   27   0.918  12.107   7.132
    2CLSB   H12   28   0.700  12.297   6.939
    2CLSB   H13   29   0.927  12.289   7.011
    2CLSB   H14   30   0.740  11.933   7.037
    2CLSB   H15   31   0.851  12.076   7.214
    2CLSB   H16   32   0.841  12.135   6.829
    2CLSB    O6   33   0.937  12.003   7.034
    2CLSB   C12   34   0.842  11.850   6.866
    2CLSB   H17   35   0.900  11.773   6.918
    2CLSB   H18   36   0.746  11.805   6.840
    2CLSB    O7   37   0.909  11.890   6.746
    2CLSB   H19   38   1.004  11.895   6.770
    2CLSB    O8   39   0.813  12.319   7.180
    2CLSB   H20   40   0.717  12.291   7.182
    2CLSB    O9   41   0.617  12.170   7.087
    2CLSB   H21   42   0.529  12.165   7.039
    2CLSB   O10   43   1.048  12.142   7.182
    3CLSA   C13   44   1.101  12.054   7.283
    3CLSA   C14   45   1.357  11.992   7.415
    3CLSA   C15   46   1.167  12.145   7.389
    3CLSA   C16   47   1.204  11.962   7.212
    3CLSA   C17   48   1.299  11.893   7.311
    3CLSA   H22   49   1.428  12.062   7.369
    3CLSA   H23   50   1.023  11.993   7.329
    3CLSA   H24   51   1.266  12.027   7.147
    3CLSA   H25   52   1.244  11.816   7.365
    3CLSA   H26   53   1.232  12.218   7.337
    3CLSA   O11   54   1.142  11.859   7.129
    3CLSA   H27   55   1.066  11.902   7.081
    3CLSA   O12   56   1.401  11.831   7.230
    3CLSA   H28   57   1.353  11.777   7.163
    3CLSA   O13   58   1.248  12.064   7.477
    3CLSA   C18   59   1.065  12.226   7.474
    3CLSA   H29   60   1.077  12.198   7.580
    3CLSA   H30   61   1.087  12.332   7.466
    3CLSA   O14   62   0.930  12.201   7.436
    3CLSA   H31   63   0.902  12.277   7.380
    3CLSA   O15   64   1.415  11.916   7.519
    4CLSB   C19   65   1.521  11.984   7.590
    4CLSB   C20   66   1.567  12.145   7.778
    4CLSB   C21   67   1.458  12.091   7.684
    4CLSB   C22   68   1.598  11.873   7.667
    4CLSB   C23   69   1.641  12.029   7.850
    4CLSB   H32   70   1.428  12.176   7.621
    4CLSB   H33   71   1.638  12.207   7.723
    4CLSB   H34   72   1.526  11.813   7.726
    4CLSB   H35   73   1.568  11.984   7.920
    4CLSB   H36   74   1.589  12.032   7.520
    4CLSB   O16   75   1.694  11.933   7.756
    4CLSB   C24   76   1.675  11.779   7.571
    4CLSB   H37   77   1.717  11.696   7.628
    4CLSB   H38   78   1.605  11.737   7.498
    4CLSB   O17   79   1.781  11.848   7.505
    4CLSB   H39   80   1.852  11.862   7.569
    4CLSB   O18   81   1.495  12.220   7.874
    4CLSB   H40   82   1.407  12.176   7.863
    4CLSB   O19   83   1.344  12.039   7.758
    4CLSB   H41   84   1.278  12.006   7.690
    4CLSB   O20   85   1.753  12.085   7.919
    5CLSA   C25   86   1.814  12.000   8.019
    5CLSA   C26   87   2.066  11.971   8.167
    5CLSA   C27   88   1.857  12.095   8.133
    5CLSA   C28   89   1.936  11.928   7.950
    5CLSA   C29   90   2.034  11.871   8.052
    5CLSA   H42   91   2.130  12.053   8.131
    5CLSA   H43   92   1.743  11.924   8.057
    5CLSA   H44   93   1.989  12.006   7.894
    5CLSA   H45   94   1.987  11.782   8.101
    5CLSA   H46   95   1.912  12.179   8.089
    5CLSA   O21   96   1.899  11.819   7.864
    5CLSA   H47   97   1.819  11.849   7.812
    5CLSA   O22   98   2.150  11.830   7.980
    5CLSA   H48   99   2.114  11.774   7.907
    5CLSA   O23  100   1.945  12.024   8.224
    5CLSA   C30  101   1.738  12.153   8.213
    5CLSA   H49  102   1.745  12.119   8.317
    5CLSA   H50  103   1.745  12.263   8.216
    5CLSA   O24  104   1.611  12.115   8.161
    5CLSA   H51  105   1.580  12.189   8.105
    5CLSA   O25  106   2.126  11.897   8.270
    6CLSB   C31  107   2.233  11.963   8.335
    6CLSB   C32  108   2.281  12.114   8.530
    6CLSB   C33  109   2.170  12.064   8.436
    6CLSB   C34  110   2.317  11.852   8.402
    6CLSB   C35  111   2.361  11.999   8.593
    6CLSB   H52  112   2.135  12.151   8.379
    6CLSB   H53  113   2.348  12.183   8.477
    6CLSB   H54  114   2.250  11.786   8.459
    6CLSB   H55  115   2.292  11.946   8.662
    6CLSB   H56  116   2.296  12.018   8.263
    6CLSB   O26  117   2.414  11.910   8.492
    6CLSB   C36  118   2.393  11.768   8.298
    6CLSB   H57  119   2.439  11.681   8.345
    6CLSB   H58  120   2.323  11.730   8.222
    6CLSB   O27  121   2.495  11.845   8.233
    6CLSB   H59  122   2.565  11.861   8.299
    6CLSB   O28  123   2.210  12.182   8.633
    6CLSB   H60  124   2.123  12.137   8.621
    6CLSB   O29  125   2.060  12.006   8.511
    6CLSB   H61  126   1.996  11.969   8.444
    6CLSB   O30  127   2.474  12.051   8.661
    7CLSA   C37  128   2.540  11.962   8.752
    7CLSA   C38  129   2.801  11.929   8.888
    7CLSA   C39  130   2.590  12.053   8.868
    7CLSA   C40  131   2.658  11.893   8.677
    7CLSA   C41  132   2.763  11.832   8.771
    7CLSA   H62  133   2.863  12.013   8.853
    7CLSA   H63  134   2.471  11.886   8.794
    7CLSA   H64  135   2.708  11.970   8.618
    7CLSA   H65  136   2.721  11.742   8.818
    7CLSA   H66  137   2.643  12.138   8.825
    7CLSA   O31  138   2.617  11.785   8.591
    7CLSA   H67  139   2.536  11.817   8.541
    7CLSA   O32  140   2.875  11.797   8.688
    7CLSA   H68  141   2.836  11.741   8.619
    7CLSA   O33  142   2.681  11.977   8.952
    7CLSA   C42  143   2.476  12.110   8.957
    7CLSA   H69  144   2.490  12.076   9.060
    7CLSA   H70  145   2.481  12.220   8.957
    7CLSA   O34  146   2.345  12.069   8.913
    7CLSA   H71  147   2.308  12.143   8.860
    7CLSA   O35  148   2.865  11.851   8.986
    8CLSB   C43  149   2.971  11.918   9.055
    8CLSB   C44  150   3.018  12.082   9.241
    8CLSB   C45  151   2.910  12.030   9.144
    8CLSB   C46  152   3.044  11.808   9.137
    8CLSB   C47  153   3.086  11.966   9.317
    8CLSB   H72  154   2.883  12.114   9.080
    8CLSB   H73  155   3.092  12.142   9.186
    8CLSB   H74  156   2.969  11.753   9.195
    8CLSB   H75  157   3.010  11.925   9.385
    8CLSB   H76  158   3.041  11.963   8.983
    8CLSB   O36  159   3.140  11.867   9.226
    8CLSB   C48  160   3.119  11.709   9.045
    8CLSB   H77  161   3.157  11.625   9.107
    8CLSB   H78  162   3.050  11.666   8.972
    8CLSB   O37  163   3.229  11.772   8.979
    8CLSB   H79  164   3.295  11.792   9.046
    8CLSB   O38  165   2.946  12.163   9.332
    8CLSB   H80  166   2.857  12.120   9.318
    8CLSB   O39  167   2.792  11.985   9.216
    8CLSB   H81  168   2.726  11.951   9.147
    8CLSB   O40  169   3.199  12.020   9.390
    9CLSA   C49  170   3.250  11.937   9.497
    9CLSA   C50  171   3.495  11.899   9.658
    9CLSA   C51  172   3.294  12.035   9.607
    9CLSA   C52  173   3.370  11.855   9.440
    9CLSA   C53  174   3.454  11.792   9.551
    9CLSA   H82  175   3.564  11.972   9.614
    9CLSA   H83  176   3.174  11.868   9.536
    9CLSA   H84  177   3.434  11.926   9.386
    9CLSA   H85  178   3.394  11.716   9.603
    9CLSA   H86  179   3.353  12.114   9.561
    9CLSA   O41  180   3.331  11.746   9.352
    9CLSA   H87  181   3.258  11.780   9.293
    9CLSA   O42  182   3.566  11.729   9.485
    9CLSA   H88  183   3.523  11.683   9.409
    9CLSA   O43  184   3.375  11.965   9.706
    9CLSA   C54  185   3.173  12.102   9.680
    9CLSA   H89  186   3.173  12.071   9.785
    9CLSA   H90  187   3.187  12.211   9.678
    9CLSA   O44  188   3.047  12.068   9.622
    9CLSA   H91  189   3.024  12.140   9.561
    9CLSA   O45  190   3.550  11.830   9.770
   10CLSB   C55  191   3.644  11.909   9.846
   10CLSB   C56  192   3.721  11.928  10.091
   10CLSB   C57  193   3.607  11.885   9.995
   10CLSB   C58  194   3.786  11.857   9.811
   10CLSB   C59  195   3.858  11.871  10.043
   10CLSB   H92  196   3.518  11.946  10.018
   10CLSB   H93  197   3.725  12.038  10.096
   10CLSB   H94  198   3.785  11.747   9.817
   10CLSB   H95  199   3.857  11.762  10.054
   10CLSB   H96  200   3.636  12.016   9.825
   10CLSB   O46  201   3.881  11.910   9.906
   10CLSB   C60  202   3.832  11.897   9.669
   10CLSB   H97  203   3.932  11.855   9.652
   10CLSB   H98  204   3.766  11.854   9.595
   10CLSB   O47  205   3.836  12.040   9.658
   10CLSB   H99  206   3.883  12.070   9.739
   10CLSB   O48  207   3.681  11.875  10.217
   10CLSB  H100  208   3.630  11.796  10.187
   10CLSB   O49  209   3.576  11.746  10.014
   10CLSB  H101  210   3.537  11.722   9.925
   10CLSB   O50  211   3.968  11.928  10.110
   10CLSB  H102  212   4.007  11.986  10.042
   11CLSA    H1  213  10.545   8.330   9.739
   11CLSA    C1  214  10.453   8.390   9.743
   11CLSA    C2  215  10.190   8.474   9.671
   11CLSA    C3  216  10.332   8.302   9.783
   11CLSA    C4  217  10.433   8.460   9.609
   11CLSA    C5  218  10.310   8.552   9.611
   11CLSA    H2  219  10.106   8.477   9.601
   11CLSA    H3  220  10.471   8.467   9.820
   11CLSA    H4  221  10.420   8.384   9.530
   11CLSA    H5  222  10.332   8.633   9.682
   11CLSA    H6  223  10.360   8.198   9.757
   11CLSA    O1  224  10.550   8.536   9.585
   11CLSA    H7  225  10.530   8.588   9.504
   11CLSA    O2  226  10.282   8.609   9.481
   11CLSA    H8  227  10.198   8.662   9.488
   11CLSA    O3  228  10.220   8.335   9.697
   11CLSA    C6  229  10.294   8.301   9.933
   11CLSA    H9  230  10.200   8.245   9.944
   11CLSA   H10  231  10.370   8.247   9.991
   11CLSA    O4  232  10.278   8.432   9.991
   11CLSA   H11  233  10.230   8.484   9.917
   11CLSA    O5  234  10.153   8.533   9.796
   12CLSB    C7  235  10.013   8.563   9.806
   12CLSB    C8  236   9.810   8.524   9.942
   12CLSB    C9  237   9.961   8.493   9.934
   12CLSB   C10  238   9.989   8.716   9.809
   12CLSB   C11  239   9.782   8.677   9.929
   12CLSB   H12  240   9.971   8.385   9.920
   12CLSB   H13  241   9.756   8.470   9.865
   12CLSB   H14  242  10.034   8.758   9.899
   12CLSB   H15  243   9.817   8.721  10.025
   12CLSB   H16  244   9.958   8.520   9.721
   12CLSB    O6  245   9.845   8.738   9.815
   12CLSB   C12  246  10.049   8.791   9.687
   12CLSB   H17  247  10.008   8.893   9.684
   12CLSB   H18  248  10.156   8.801   9.703
   12CLSB    O7  249  10.026   8.725   9.562
   12CLSB   H19  250   9.934   8.750   9.536
   12CLSB    O8  251   9.772   8.481  10.070
   12CLSB   H20  252   9.862   8.486  10.113
   12CLSB    O9  253  10.029   8.537  10.057
   12CLSB   H21  254  10.123   8.503  10.059
   12CLSB   O10  255   9.641   8.693   9.914
   13CLSA   C13  256   9.589   8.822   9.952
   13CLSA   C14  257   9.345   8.984   9.921
   13CLSA   C15  258   9.457   8.794  10.028
   13CLSA   C16  259   9.566   8.901   9.820
   13CLSA   C17  260   9.472   9.021   9.840
   13CLSA   H22  261   9.278   8.920   9.863
   13CLSA   H23  262   9.659   8.877  10.016
   13CLSA   H24  263   9.515   8.831   9.750
   13CLSA   H25  264   9.525   9.099   9.896
   13CLSA   H26  265   9.397   8.724   9.969
   13CLSA   O11  266   9.688   8.949   9.759
   13CLSA   H27  267   9.755   8.875   9.767
   13CLSA   O12  268   9.442   9.070   9.708
   13CLSA   H28  269   9.530   9.082   9.664
   13CLSA   O13  270   9.385   8.919  10.043
   13CLSA   C18  271   9.479   8.731  10.169
   13CLSA   H29  272   9.437   8.799  10.245
   13CLSA   H30  273   9.424   8.638  10.175
   13CLSA   O14  274   9.616   8.709  10.199
   13CLSA   H31  275   9.634   8.613  10.184
   13CLSA   O15  276   9.284   9.104   9.961
   14CLSB   C19  277   9.141   9.094   9.983
   14CLSB   C20  278   8.967   9.030  10.153
   14CLSB   C21  279   9.116   9.019  10.117
   14CLSB   C22  280   9.087   9.240   9.983
   14CLSB   C23  281   8.920   9.177  10.150
   14CLSB   H32  282   9.135   8.912  10.099
   14CLSB   H33  283   8.906   8.968  10.086
   14CLSB   H34  284   9.146   9.299  10.055
   14CLSB   H35  285   8.969   9.228  10.235
   14CLSB   H36  286   9.094   9.039   9.901
   14CLSB   O16  287   8.949   9.240  10.024
   14CLSB   C24  288   9.096   9.305   9.844
   14CLSB   H37  289   9.069   9.410   9.851
   14CLSB   H38  290   9.199   9.299   9.808
   14CLSB   O17  291   9.008   9.241   9.751
   14CLSB   H39  292   8.918   9.268   9.773
   14CLSB   O18  293   8.961   8.982  10.287
   14CLSB   H40  294   9.055   8.998  10.311
   14CLSB   O19  295   9.201   9.068  10.225
   14CLSB   H41  296   9.296   9.057  10.193
   14CLSB   O20  297   8.777   9.178  10.164
   15CLSA   C25  298   8.718   9.306  10.199
   15CLSA   C26  299   8.459   9.443  10.189
   15CLSA   C27  300   8.601   9.272  10.294
   15CLSA   C28  301   8.671   9.371  10.064
   15CLSA   C29  302   8.569   9.483  10.087
   15CLSA   H42  303   8.388   9.371  10.146
   15CLSA   H43  304   8.790   9.372  10.249
   15CLSA   H44  305   8.620   9.292  10.008
   15CLSA   H45  306   8.622   9.570  10.131
   15CLSA   H46  307   8.541   9.192  10.249
   15CLSA   O21  308   8.777   9.429   9.986
   15CLSA   H47  309   8.853   9.365   9.989
   15CLSA   O22  310   8.516   9.518   9.960
   15CLSA   H48  311   8.596   9.533   9.904
   15CLSA   O23  312   8.518   9.390  10.310
   15CLSA   C30  313   8.647   9.224  10.434
   15CLSA   H49  314   8.612   9.296  10.509
   15CLSA   H50  315   8.599   9.128  10.457
   15CLSA   O24  316   8.788   9.211  10.445
   15CLSA   H51  317   8.809   9.116  10.431
   15CLSA   O25  318   8.395   9.562  10.229
   16CLSB   C31  319   8.255   9.550  10.245
   16CLSB   C32  320   8.080   9.498  10.419
   16CLSB   C33  321   8.229   9.484  10.384
   16CLSB   C34  322   8.199   9.694  10.234
   16CLSB   C35  323   8.031   9.644  10.405
   16CLSB   H52  324   8.249   9.376  10.373
   16CLSB   H53  325   8.019   9.432  10.356
   16CLSB   H54  326   8.257   9.760  10.299
   16CLSB   H55  327   8.081   9.702  10.484
   16CLSB   H56  328   8.211   9.488  10.166
   16CLSB   O26  329   8.060   9.698  10.274
   16CLSB   C36  330   8.208   9.748  10.089
   16CLSB   H57  331   8.183   9.854  10.087
   16CLSB   H58  332   8.312   9.738  10.053
   16CLSB   O27  333   8.120   9.676  10.002
   16CLSB   H59  334   8.029   9.703  10.026
   16CLSB   O28  335   8.073   9.460  10.555
   16CLSB   H60  336   8.168   9.477  10.578
   16CLSB   O29  337   8.313   9.540  10.488
   16CLSB   H61  338   8.408   9.534  10.456
   16CLSB   O30  339   7.889   9.647  10.417
   17CLSA   C37  340   7.831   9.777  10.440
   17CLSA   C38  341   7.571   9.915  10.416
   17CLSA   C39  342   7.709   9.749  10.533
   17CLSA   C40  343   7.789   9.837  10.303
   17CLSA   C41  344   7.686   9.950  10.315
   17CLSA   H62  345   7.502   9.840  10.374
   17CLSA   H63  346   7.901   9.845  10.492
   17CLSA   H64  347   7.741   9.756  10.246
   17CLSA   H65  348   7.736  10.039  10.355
   17CLSA   H66  349   7.650   9.668  10.489
   17CLSA   O31  350   7.898   9.892  10.227
   17CLSA   H67  351   7.973   9.827  10.232
   17CLSA   O32  352   7.638   9.975  10.182
   17CLSA   H68  353   7.719   9.991  10.131
   17CLSA   O33  354   7.628   9.869  10.540
   17CLSA   C42  355   7.748   9.706  10.677
   17CLSA   H69  356   7.708   9.778  10.748
   17CLSA   H70  357   7.703   9.609  10.700
   17CLSA   O34  358   7.890   9.697  10.696
   17CLSA   H71  359   7.915   9.603  10.687
   17CLSA   O35  360   7.507  10.036  10.448
   18CLSB   C43  361   7.366  10.025  10.468
   18CLSB   C44  362   7.191   9.958  10.637
   18CLSB   C45  363   7.340   9.944  10.598
   18CLSB   C46  364   7.314  10.172  10.475
   18CLSB   C47  365   7.147  10.106  10.640
   18CLSB   H72  366   7.356   9.839  10.577
   18CLSB   H73  367   7.129   9.900  10.567
   18CLSB   H74  368   7.373  10.226  10.548
   18CLSB   H75  369   7.199  10.152  10.725
   18CLSB   H76  370   7.319   9.974  10.383
   18CLSB   O36  371   7.175  10.173  10.515
   18CLSB   C48  372   7.324  10.243  10.338
   18CLSB   H77  373   7.299  10.349  10.352
   18CLSB   H78  374   7.427  10.238  10.302
   18CLSB   O37  375   7.235  10.185  10.242
   18CLSB   H79  376   7.145  10.207  10.270
   18CLSB   O38  377   7.185   9.904  10.767
   18CLSB   H80  378   7.281   9.917  10.791
   18CLSB   O39  379   7.426   9.986  10.707
   18CLSB   H81  380   7.522   9.976  10.675
   18CLSB   O40  381   7.003  10.110  10.657
   19CLSA   C49  382   6.949  10.236  10.702
   19CLSA   C50  383   6.694  10.385  10.706
   19CLSA   C51  384   6.831  10.199  10.794
   19CLSA   C52  385   6.902  10.316  10.576
   19CLSA   C53  386   6.810  10.432  10.612
   19CLSA   H82  387   6.626  10.319  10.651
   19CLSA   H83  388   7.023  10.296  10.757
   19CLSA   H84  389   6.843  10.246  10.515
   19CLSA   H85  390   6.868  10.507  10.669
   19CLSA   H86  391   6.771  10.124  10.744
   19CLSA   O41  392   7.010  10.372  10.496
   19CLSA   H87  393   7.082  10.302  10.492
   19CLSA   O42  394   6.766  10.489  10.487
   19CLSA   H88  395   6.850  10.493  10.435
   19CLSA   O43  396   6.750  10.318  10.820
   19CLSA   C54  397   6.878  10.140  10.931
   19CLSA   H89  398   6.848  10.207  11.012
   19CLSA   H90  399   6.827  10.044  10.947
   19CLSA   O44  400   7.020  10.121  10.937
   19CLSA   H91  401   7.037  10.028  10.914
   19CLSA   O45  402   6.629  10.501  10.756
   20CLSB   C55  403   6.490  10.480  10.791
   20CLSB   C56  404   6.321  10.572  10.961
   20CLSB   C57  405   6.470  10.549  10.928
   20CLSB   C58  406   6.404  10.545  10.678
   20CLSB   C59  407   6.246  10.636  10.840
   20CLSB   H92  408   6.513  10.484  11.005
   20CLSB   H93  409   6.274  10.476  10.988
   20CLSB   H94  410   6.444  10.646  10.659
   20CLSB   H95  411   6.283  10.738  10.824
   20CLSB   H96  412   6.465  10.374  10.801
   20CLSB   O46  413   6.267  10.554  10.722
   20CLSB   C60  414   6.407  10.466  10.546
   20CLSB   H97  415   6.346  10.519  10.472
   20CLSB   H98  416   6.509  10.463  10.507
   20CLSB   O47  417   6.355  10.334  10.567
   20CLSB   H99  418   6.272  10.349  10.617
   20CLSB   O48  419   6.323  10.659  11.074
   20CLSB  H100  420   6.407  10.707  11.057
   20CLSB   O49  421   6.540  10.675  10.928
   20CLSB  H101  422   6.617  10.654  10.867
   20CLSB   O50  423   6.106  10.634  10.853
   20CLSB  H102  424   6.079  10.565  10.790
   21CLSA    H1  425   2.237   5.799  -1.814
   21CLSA    C1  426   2.160   5.805  -1.736
   21CLSA    C2  427   2.016   5.732  -1.501
   21CLSA    C3  428   2.224   5.830  -1.598
   21CLSA    C4  429   2.075   5.679  -1.740
   21CLSA    C5  430   1.959   5.686  -1.638
   21CLSA    H2  431   1.989   5.658  -1.424
   21CLSA    H3  432   2.097   5.891  -1.765
   21CLSA    H4  433   2.138   5.591  -1.716
   21CLSA    H5  434   1.892   5.766  -1.672
   21CLSA    H6  435   2.328   5.795  -1.605
   21CLSA    O1  436   2.023   5.668  -1.871
   21CLSA    H7  437   1.960   5.593  -1.867
   21CLSA    O2  438   1.886   5.562  -1.631
   21CLSA    H8  439   1.817   5.571  -1.560
   21CLSA    O3  440   2.160   5.744  -1.501
   21CLSA    C6  441   2.231   5.978  -1.550
   21CLSA    H9  442   2.267   5.978  -1.447
   21CLSA   H10  443   2.306   6.032  -1.610
   21CLSA    O4  444   2.106   6.048  -1.558
   21CLSA   H11  445   2.038   5.979  -1.526
   21CLSA    O5  446   1.963   5.861  -1.469
   22CLSB    C7  447   1.906   5.868  -1.338
   22CLSB    C8  448   1.914   5.990  -1.123
   22CLSB    C9  449   1.975   5.985  -1.265
   22CLSB   C10  450   1.752   5.886  -1.345
   22CLSB   C11  451   1.758   5.993  -1.128
   22CLSB   H12  452   2.081   5.960  -1.253
   22CLSB   H13  453   1.948   5.905  -1.064
   22CLSB   H14  454   1.729   5.983  -1.392
   22CLSB   H15  455   1.732   6.094  -1.165
   22CLSB   H16  456   1.927   5.777  -1.281
   22CLSB    O6  457   1.701   5.888  -1.209
   22CLSB   C12  458   1.679   5.776  -1.427
   22CLSB   H17  459   1.571   5.782  -1.408
   22CLSB   H18  460   1.694   5.797  -1.533
   22CLSB    O7  461   1.727   5.643  -1.399
   22CLSB   H19  462   1.680   5.616  -1.316
   22CLSB    O8  463   1.960   6.111  -1.069
   22CLSB   H20  464   1.979   6.158  -1.155
   22CLSB    O9  465   1.958   6.115  -1.332
   22CLSB   H21  466   2.011   6.118  -1.417
   22CLSB   O10  467   1.711   5.974  -0.994
   23CLSA   C13  468   1.579   6.022  -0.967
   23CLSA   C14  469   1.367   5.999  -0.764
   23CLSA   C15  470   1.585   6.090  -0.828
   23CLSA   C16  471   1.484   5.899  -0.969
   23CLSA   C17  472   1.349   5.928  -0.901
   23CLSA   H22  473   1.409   5.931  -0.689
   23CLSA   H23  474   1.546   6.095  -1.042
   23CLSA   H24  475   1.534   5.820  -0.910
   23CLSA   H25  476   1.290   5.994  -0.965
   23CLSA   H26  477   1.635   6.020  -0.758
   23CLSA   O11  478   1.457   5.849  -1.103
   23CLSA   H27  479   1.544   5.851  -1.153
   23CLSA   O12  480   1.283   5.800  -0.890
   23CLSA   H28  481   1.285   5.762  -0.981
   23CLSA   O13  482   1.450   6.115  -0.782
   23CLSA   C18  483   1.665   6.224  -0.827
   23CLSA   H29  484   1.598   6.304  -0.795
   23CLSA   H30  485   1.745   6.217  -0.754
   23CLSA   O14  486   1.718   6.257  -0.954
   23CLSA   H31  487   1.814   6.232  -0.953
   23CLSA   O15  488   1.241   6.049  -0.726
   24CLSB   C19  489   1.223   6.063  -0.583
   24CLSB   C20  490   1.266   6.218  -0.390
   24CLSB   C21  491   1.304   6.188  -0.535
   24CLSB   C22  492   1.070   6.077  -0.560
   24CLSB   C23  493   1.112   6.229  -0.373
   24CLSB   H32  494   1.410   6.159  -0.532
   24CLSB   H33  495   1.306   6.142  -0.322
   24CLSB   H34  496   1.031   6.158  -0.625
   24CLSB   H35  497   1.081   6.321  -0.427
   24CLSB   H36  498   1.259   5.974  -0.531
   24CLSB   O16  499   1.045   6.112  -0.423
   24CLSB   C24  500   0.995   5.947  -0.591
   24CLSB   H37  501   0.887   5.964  -0.587
   24CLSB   H38  502   1.018   5.914  -0.693
   24CLSB   O17  503   1.029   5.844  -0.499
   24CLSB   H39  504   0.986   5.864  -0.414
   24CLSB   O18  505   1.323   6.345  -0.365
   24CLSB   H40  506   1.330   6.376  -0.458
   24CLSB   O19  507   1.285   6.303  -0.621
   24CLSB   H41  508   1.312   6.275  -0.714
   24CLSB   O20  509   1.083   6.237  -0.233
   25CLSA   C25  510   0.949   6.283  -0.199
   25CLSA   C26  511   0.760   6.277   0.025
   25CLSA   C27  512   0.966   6.369  -0.072
   25CLSA   C28  513   0.862   6.154  -0.175
   25CLSA   C29  514   0.734   6.185  -0.097
   25CLSA   H42  515   0.812   6.224   0.106
   25CLSA   H43  516   0.904   6.343  -0.280
   25CLSA   H44  517   0.923   6.088  -0.113
   25CLSA   H45  518   0.665   6.240  -0.164
   25CLSA   H46  519   1.027   6.313   0.000
   25CLSA   O21  520   0.820   6.087  -0.296
   25CLSA   H47  521   0.900   6.087  -0.357
   25CLSA   O22  522   0.677   6.060  -0.060
   25CLSA   H48  523   0.673   6.009  -0.146
   25CLSA   O23  524   0.836   6.394  -0.014
   25CLSA   C30  525   1.037   6.504  -0.098
   25CLSA   H49  526   0.967   6.586  -0.074
   25CLSA   H50  527   1.122   6.515  -0.030
   25CLSA   O24  528   1.081   6.520  -0.233
   25CLSA   H51  529   1.175   6.496  -0.234
   25CLSA   O25  530   0.635   6.327   0.066
   26CLSB   C31  531   0.618   6.335   0.206
   26CLSB   C32  532   0.649   6.494   0.399
   26CLSB   C33  533   0.691   6.465   0.254
   26CLSB   C34  534   0.466   6.338   0.230
   26CLSB   C35  535   0.496   6.495   0.416
   26CLSB   H52  536   0.799   6.443   0.256
   26CLSB   H53  537   0.695   6.423   0.468
   26CLSB   H54  538   0.420   6.412   0.165
   26CLSB   H55  539   0.458   6.582   0.360
   26CLSB   H56  540   0.662   6.248   0.257
   26CLSB   O26  541   0.437   6.372   0.368
   26CLSB   C36  542   0.402   6.200   0.201
   26CLSB   H57  543   0.293   6.208   0.204
   26CLSB   H58  544   0.429   6.168   0.100
   26CLSB   O27  545   0.444   6.102   0.296
   26CLSB   H59  546   0.402   6.124   0.381
   26CLSB   O28  547   0.698   6.626   0.423
   26CLSB   H60  548   0.704   6.654   0.328
   26CLSB   O29  549   0.664   6.578   0.167
   26CLSB   H61  550   0.687   6.550   0.074
   26CLSB   O30  551   0.464   6.501   0.554
   27CLSA   C37  552   0.328   6.535   0.586
   27CLSA   C38  553   0.136   6.515   0.810
   27CLSA   C39  554   0.338   6.619   0.717
   27CLSA   C40  555   0.248   6.404   0.606
   27CLSA   C41  556   0.117   6.424   0.685
   27CLSA   H62  557   0.191   6.463   0.890
   27CLSA   H63  558   0.281   6.597   0.508
   27CLSA   H64  559   0.311   6.336   0.666
   27CLSA   H65  560   0.044   6.475   0.620
   27CLSA   H66  561   0.400   6.565   0.789
   27CLSA   O31  562   0.209   6.339   0.484
   27CLSA   H67  563   0.289   6.341   0.424
   27CLSA   O32  564   0.069   6.292   0.718
   27CLSA   H68  565   0.066   6.246   0.632
   27CLSA   O33  566   0.206   6.636   0.772
   27CLSA   C42  567   0.403   6.759   0.697
   27CLSA   H69  568   0.331   6.836   0.726
   27CLSA   H70  569   0.490   6.769   0.763
   27CLSA   O34  570   0.443   6.784   0.562
   27CLSA   H71  571   0.539   6.765   0.556
   27CLSA   O35  572   0.009   6.557   0.850
   28CLSB   C43  573  -0.009   6.570   0.991
   28CLSB   C44  574   0.037   6.723   1.187
   28CLSB   C45  575   0.077   6.689   1.042
   28CLSB   C46  576  -0.161   6.590   1.013
   28CLSB   C47  577  -0.116   6.740   1.200
   28CLSB   H72  578   0.181   6.657   1.046
   28CLSB   H73  579   0.073   6.645   1.255
   28CLSB   H74  580  -0.195   6.672   0.949
   28CLSB   H75  581  -0.142   6.832   1.146
   28CLSB   H76  582   0.023   6.478   1.042
   28CLSB   O36  583  -0.188   6.625   1.151
   28CLSB   C48  584  -0.242   6.462   0.979
   28CLSB   H77  585  -0.349   6.487   0.984
   28CLSB   H78  586  -0.219   6.431   0.878
   28CLSB   O37  587  -0.214   6.357   1.072
   28CLSB   H79  588  -0.251   6.384   1.157
   28CLSB   O38  589   0.101   6.846   1.212
   28CLSB   H80  590   0.110   6.875   1.118
   28CLSB   O39  591   0.066   6.806   0.956
   28CLSB   H81  592   0.092   6.777   0.863
   28CLSB   O40  593  -0.149   6.751   1.341
   29CLSA   C49  594  -0.279   6.807   1.371
   29CLSA   C50  595  -0.477   6.816   1.590
   29CLSA   C51  596  -0.258   6.890   1.499
   29CLSA   C52  597  -0.378   6.688   1.393
   29CLSA   C53  598  -0.507   6.734   1.461
   29CLSA   H82  599  -0.432   6.752   1.666
   29CLSA   H83  600  -0.316   6.872   1.290
   29CLSA   H84  601  -0.328   6.618   1.460
   29CLSA   H85  602  -0.562   6.800   1.393
   29CLSA   H86  603  -0.203   6.829   1.571
   29CLSA   O41  604  -0.418   6.621   1.271
   29CLSA   H87  605  -0.335   6.612   1.214
   29CLSA   O42  606  -0.584   6.613   1.484
   29CLSA   H88  607  -0.575   6.566   1.398
   29CLSA   O43  608  -0.388   6.925   1.557
   29CLSA   C54  609  -0.177   7.021   1.475
   29CLSA   H89  610  -0.241   7.108   1.496
   29CLSA   H90  611  -0.094   7.024   1.546
   29CLSA   O44  612  -0.129   7.032   1.340
   29CLSA   H91  613  -0.036   6.999   1.342
   29CLSA   O45  614  -0.599   6.876   1.633
   30CLSB   C55  615  -0.604   6.902   1.775
   30CLSB   C56  616  -0.712   7.074   1.933
   30CLSB   C57  617  -0.662   7.045   1.790
   30CLSB   C58  618  -0.696   6.794   1.838
   30CLSB   C59  619  -0.801   6.958   1.985
   30CLSB   H92  620  -0.582   7.117   1.766
   30CLSB   H93  621  -0.626   7.088   1.999
   30CLSB   H94  622  -0.788   6.787   1.778
   30CLSB   H95  623  -0.895   6.954   1.927
   30CLSB   H96  624  -0.505   6.900   1.822
   30CLSB   O46  625  -0.729   6.833   1.973
   30CLSB   C60  626  -0.631   6.654   1.843
   30CLSB   H97  627  -0.703   6.583   1.887
   30CLSB   H98  628  -0.610   6.619   1.742
   30CLSB   O47  629  -0.512   6.658   1.922
   30CLSB   H99  630  -0.538   6.707   2.004
   30CLSB   O48  631  -0.785   7.196   1.920
   30CLSB  H100  632  -0.816   7.188   1.827
   30CLSB   O49  633  -0.770   7.061   1.695
   30CLSB  H101  634  -0.739   7.003   1.620
   30CLSB   O50  635  -0.828   6.964   2.123
   30CLSB  H102  636  -0.773   6.893   2.159
   31CLSA    H1  637   8.206   5.954  -0.015
   31CLSA    C1  638   8.302   6.008  -0.018
   31CLSA    C2  639   8.477   6.233  -0.028
   31CLSA    C3  640   8.317   6.098   0.107
   31CLSA    C4  641   8.311   6.086  -0.148
   31CLSA    C5  642   8.447   6.158  -0.161
   31CLSA    H2  643   8.497   6.338  -0.050
   31CLSA    H3  644   8.379   5.930  -0.018
   31CLSA    H4  645   8.230   6.162  -0.151
   31CLSA    H5  646   8.523   6.079  -0.170
   31CLSA    H6  647   8.215   6.117   0.145
   31CLSA    O1  648   8.294   5.993  -0.253
   31CLSA    H7  649   8.313   6.044  -0.334
   31CLSA    O2  650   8.452   6.243  -0.278
   31CLSA    H8  651   8.540   6.290  -0.277
   31CLSA    O3  652   8.368   6.227   0.066
   31CLSA    C6  653   8.397   6.038   0.226
   31CLSA    H9  654   8.410   6.117   0.302
   31CLSA   H10  655   8.338   5.958   0.274
   31CLSA    O4  656   8.525   5.984   0.190
   31CLSA   H11  657   8.561   6.053   0.123
   31CLSA    O5  658   8.590   6.172   0.035
   32CLSB    C7  659   8.692   6.266   0.071
   32CLSB    C8  660   8.827   6.351   0.261
   32CLSB    C9  661   8.719   6.246   0.222
   32CLSB   C10  662   8.820   6.247  -0.014
   32CLSB   C11  663   8.950   6.343   0.167
   32CLSB   H12  664   8.628   6.273   0.277
   32CLSB   H13  665   8.785   6.451   0.260
   32CLSB   H14  666   8.863   6.148   0.007
   32CLSB   H15  667   9.002   6.248   0.194
   32CLSB   H16  668   8.656   6.369   0.058
   32CLSB    O6  669   8.916   6.348   0.027
   32CLSB   C12  670   8.795   6.256  -0.167
   32CLSB   H17  671   8.892   6.264  -0.219
   32CLSB   H18  672   8.751   6.161  -0.199
   32CLSB    O7  673   8.709   6.364  -0.205
   32CLSB   H19  674   8.767   6.443  -0.207
   32CLSB    O8  675   8.866   6.314   0.391
   32CLSB   H20  676   8.838   6.218   0.387
   32CLSB    O9  677   8.764   6.111   0.257
   32CLSB   H21  678   8.689   6.045   0.247
   32CLSB   O10  679   9.033   6.456   0.195
   33CLSA   C13  680   9.171   6.443   0.159
   33CLSA   C14  681   9.411   6.610   0.120
   33CLSA   C15  682   9.252   6.505   0.275
   33CLSA   C16  683   9.190   6.520   0.026
   33CLSA   C17  684   9.338   6.552  -0.004
   33CLSA   H22  685   9.376   6.711   0.143
   33CLSA   H23  686   9.200   6.338   0.145
   33CLSA   H24  687   9.138   6.617   0.038
   33CLSA   H25  688   9.389   6.459  -0.032
   33CLSA   H26  689   9.209   6.604   0.299
   33CLSA   O11  690   9.135   6.451  -0.090
   33CLSA   H27  691   9.047   6.413  -0.062
   33CLSA   O12  692   9.338   6.642  -0.116
   33CLSA   H28  693   9.282   6.598  -0.185
   33CLSA   O13  694   9.389   6.522   0.233
   33CLSA   C18  695   9.249   6.420   0.406
   33CLSA   H29  696   9.352   6.391   0.430
   33CLSA   H30  697   9.212   6.481   0.487
   33CLSA   O14  698   9.171   6.302   0.393
   33CLSA   H31  699   9.084   6.321   0.436
   33CLSA   O15  700   9.549   6.604   0.095
   34CLSB   C19  701   9.627   6.703   0.166
   34CLSB   C20  702   9.741   6.750   0.385
   34CLSB   C21  703   9.638   6.660   0.316
   34CLSB   C22  704   9.765   6.709   0.094
   34CLSB   C23  705   9.875   6.753   0.308
   34CLSB   H32  706   9.541   6.682   0.363
   34CLSB   H33  707   9.701   6.852   0.398
   34CLSB   H34  708   9.806   6.607   0.086
   34CLSB   H35  709   9.919   6.652   0.318
   34CLSB   H36  710   9.579   6.801   0.160
   34CLSB   O16  711   9.855   6.791   0.170
   34CLSB   C24  712   9.753   6.770  -0.047
   34CLSB   H37  713   9.849   6.760  -0.099
   34CLSB   H38  714   9.679   6.713  -0.105
   34CLSB   O17  715   9.716   6.907  -0.042
   34CLSB   H39  716   9.794   6.958  -0.012
   34CLSB   O18  717   9.762   6.687   0.511
   34CLSB   H40  718   9.733   6.596   0.485
   34CLSB   O19  719   9.671   6.519   0.330
   34CLSB   H41  720   9.600   6.468   0.282
   34CLSB   O20  721   9.958   6.854   0.367
   35CLSA   C25  722  10.098   6.848   0.331
   35CLSA   C26  723  10.336   7.020   0.329
   35CLSA   C27  724  10.174   6.889   0.460
   35CLSA   C28  725  10.119   6.949   0.213
   35CLSA   C29  726  10.266   6.986   0.194
   35CLSA   H42  727  10.303   7.117   0.369
   35CLSA   H43  728  10.129   6.747   0.300
   35CLSA   H44  729  10.066   7.040   0.241
   35CLSA   H45  730  10.320   6.899   0.152
   35CLSA   H46  731  10.129   6.981   0.499
   35CLSA   O21  732  10.074   6.900   0.085
   35CLSA   H47  733   9.986   6.855   0.101
   35CLSA   O22  734  10.270   7.095   0.102
   35CLSA   H48  735  10.216   7.063   0.025
   35CLSA   O23  736  10.313   6.915   0.426
   35CLSA   C30  737  10.169   6.782   0.572
   35CLSA   H49  738  10.271   6.747   0.591
   35CLSA   H50  739  10.133   6.828   0.665
   35CLSA   O24  740  10.087   6.670   0.539
   35CLSA   H51  741  10.000   6.686   0.580
   35CLSA   O25  742  10.474   7.016   0.305
   36CLSB   C31  743  10.548   7.117   0.372
   36CLSB   C32  744  10.673   7.160   0.586
   36CLSB   C33  745  10.568   7.070   0.519
   36CLSB   C34  746  10.681   7.132   0.293
   36CLSB   C35  747  10.802   7.171   0.503
   36CLSB   H52  748  10.473   7.088   0.573
   36CLSB   H53  749  10.631   7.260   0.606
   36CLSB   H54  750  10.724   7.033   0.278
   36CLSB   H55  751  10.850   7.072   0.504
   36CLSB   H56  752  10.495   7.213   0.371
   36CLSB   O26  753  10.774   7.215   0.368
   36CLSB   C36  754  10.658   7.199   0.156
   36CLSB   H57  755  10.749   7.194   0.096
   36CLSB   H58  756  10.581   7.143   0.101
   36CLSB   O27  757  10.618   7.335   0.170
   36CLSB   H59  758  10.696   7.384   0.202
   36CLSB   O28  759  10.703   7.094   0.708
   36CLSB   H60  760  10.673   7.003   0.680
   36CLSB   O29  761  10.605   6.930   0.528
   36CLSB   H61  762  10.537   6.878   0.477
   36CLSB   O30  763  10.885   7.272   0.558
   37CLSA   C37  764  11.022   7.272   0.514
   37CLSA   C38  765  11.256   7.453   0.500
   37CLSA   C39  766  11.104   7.317   0.638
   37CLSA   C40  767  11.035   7.372   0.395
   37CLSA   C41  768  11.179   7.416   0.369
   37CLSA   H62  769  11.221   7.548   0.542
   37CLSA   H63  770  11.056   7.171   0.483
   37CLSA   H64  771  10.978   7.462   0.422
   37CLSA   H65  772  11.235   7.333   0.323
   37CLSA   H66  773  11.059   7.408   0.679
   37CLSA   O31  774  10.987   7.320   0.269
   37CLSA   H67  775  10.901   7.275   0.288
   37CLSA   O32  776  11.172   7.527   0.276
   37CLSA   H68  777  11.119   7.491   0.202
   37CLSA   O33  778  11.240   7.346   0.597
   37CLSA   C42  779  11.108   7.212   0.752
   37CLSA   H69  780  11.212   7.183   0.771
   37CLSA   H70  781  11.069   7.256   0.845
   37CLSA   O34  782  11.033   7.093   0.722
   37CLSA   H71  783  10.945   7.103   0.766
   37CLSA   O35  784  11.392   7.454   0.470
   38CLSB   C43  785  11.469   7.552   0.539
   38CLSB   C44  786  11.580   7.602   0.760
   38CLSB   C45  787  11.474   7.515   0.690
   38CLSB   C46  788  11.608   7.554   0.471
   38CLSB   C47  789  11.715   7.599   0.685
   38CLSB   H72  790  11.379   7.540   0.735
   38CLSB   H73  791  11.543   7.705   0.769
   38CLSB   H74  792  11.646   7.451   0.468
   38CLSB   H75  793  11.755   7.497   0.698
   38CLSB   H76  794  11.422   7.652   0.528
   38CLSB   O36  795  11.700   7.635   0.546
   38CLSB   C48  796  11.601   7.610   0.327
   38CLSB   H77  797  11.700   7.596   0.279
   38CLSB   H78  798  11.528   7.554   0.269
   38CLSB   O37  799  11.569   7.749   0.327
   38CLSB   H79  800  11.645   7.796   0.364
   38CLSB   O38  801  11.595   7.542   0.887
   38CLSB   H80  802  11.562   7.452   0.862
   38CLSB   O39  803  11.502   7.373   0.710
   38CLSB   H81  804  11.430   7.322   0.660
   38CLSB   O40  805  11.802   7.698   0.744
   39CLSA   C49  806  11.943   7.683   0.716
   39CLSA   C50  807  12.193   7.841   0.714
   39CLSA   C51  808  12.016   7.727   0.844
   39CLSA   C52  809  11.978   7.775   0.594
   39CLSA   C53  810  12.128   7.795   0.579
   39CLSA   H82  811  12.159   7.941   0.741
   39CLSA   H83  812  11.969   7.579   0.691
   39CLSA   H84  813  11.933   7.873   0.616
   39CLSA   H85  814  12.175   7.700   0.552
   39CLSA   H86  815  11.973   7.822   0.877
   39CLSA   O41  816  11.930   7.726   0.466
   39CLSA   H87  817  11.837   7.690   0.481
   39CLSA   O42  818  12.144   7.890   0.471
   39CLSA   H88  819  12.081   7.856   0.403
   39CLSA   O43  820  12.158   7.746   0.817
   39CLSA   C54  821  12.001   7.624   0.961
   39CLSA   H89  822  12.099   7.583   0.986
   39CLSA   H90  823  11.964   7.677   1.050
   39CLSA   O44  824  11.913   7.516   0.928
   39CLSA   H91  825  11.825   7.539   0.964
   39CLSA   O45  826  12.334   7.833   0.699
   40CLSB   C55  827  12.407   7.923   0.785
   40CLSB   C56  828  12.635   7.930   0.905
   40CLSB   C57  829  12.524   7.841   0.845
   40CLSB   C58  830  12.457   8.040   0.695
   40CLSB   C59  831  12.674   8.044   0.807
   40CLSB   H92  832  12.483   7.777   0.925
   40CLSB   H93  833  12.599   7.973   1.000
   40CLSB   H94  834  12.504   7.998   0.605
   40CLSB   H95  835  12.724   8.001   0.719
   40CLSB   H96  836  12.346   7.962   0.867
   40CLSB   O46  837  12.556   8.118   0.768
   40CLSB   C60  838  12.344   8.136   0.651
   40CLSB   H97  839  12.388   8.215   0.587
   40CLSB   H98  840  12.272   8.082   0.591
   40CLSB   O47  841  12.283   8.195   0.767
   40CLSB   H99  842  12.358   8.225   0.822
   40CLSB   O48  843  12.742   7.840   0.929
   40CLSB  H100  844  12.726   7.774   0.858
   40CLSB   O49  845  12.579   7.757   0.741
   40CLSB  H101  846  12.498   7.739   0.685
   40CLSB   O50  847  12.754   8.144   0.866
   40CLSB  H102  848  12.692   8.219   0.874
   41CLSA    H1  849   3.910   2.721  10.680
   41CLSA    C1  850   3.943   2.624  10.640
   41CLSA    C2  851   3.926   2.384  10.487
   41CLSA    C3  852   3.956   2.631  10.486
   41CLSA    C4  853   3.845   2.516  10.685
   41CLSA    C5  854   3.890   2.376  10.638
   41CLSA    H2  855   3.868   2.308  10.432
   41CLSA    H3  856   4.041   2.605  10.685
   41CLSA    H4  857   3.745   2.537  10.644
   41CLSA    H5  858   3.984   2.354  10.691
   41CLSA    H6  859   3.892   2.716  10.453
   41CLSA    O1  860   3.842   2.521  10.826
   41CLSA    H7  861   3.788   2.443  10.853
   41CLSA    O2  862   3.793   2.275  10.669
   41CLSA    H8  863   3.825   2.188  10.631
   41CLSA    O3  864   3.897   2.513  10.428
   41CLSA    C6  865   4.098   2.660  10.430
   41CLSA    H9  866   4.094   2.650  10.321
   41CLSA   H10  867   4.126   2.765  10.451
   41CLSA    O4  868   4.200   2.574  10.483
   41CLSA   H11  869   4.155   2.483  10.485
   41CLSA    O5  870   4.066   2.361  10.471
   42CLSB    C7  871   4.097   2.260  10.374
   42CLSB    C8  872   4.224   2.215  10.166
   42CLSB    C9  873   4.194   2.324  10.272
   42CLSB   C10  874   4.157   2.134  10.441
   42CLSB   C11  875   4.270   2.082  10.232
   42CLSB   H12  876   4.141   2.405  10.220
   42CLSB   H13  877   4.136   2.197  10.104
   42CLSB   H14  878   4.254   2.161  10.487
   42CLSB   H15  879   4.372   2.103  10.271
   42CLSB   H16  880   4.007   2.230  10.319
   42CLSB    O6  881   4.182   2.036  10.337
   42CLSB   C12  882   4.067   2.073  10.552
   42CLSB   H17  883   4.105   1.973  10.578
   42CLSB   H18  884   4.078   2.135  10.641
   42CLSB    O7  885   3.929   2.066  10.515
   42CLSB   H19  886   3.921   1.985  10.460
   42CLSB    O8  887   4.329   2.268  10.090
   42CLSB   H20  888   4.364   2.332  10.158
   42CLSB    O9  889   4.319   2.373  10.331
   42CLSB   H21  890   4.302   2.455  10.387
   42CLSB   O10  891   4.273   1.982  10.130
   43CLSA   C13  892   4.358   1.870  10.156
   43CLSA   C14  893   4.407   1.597  10.057
   43CLSA   C15  894   4.429   1.838  10.022
   43CLSA   C16  895   4.267   1.754  10.203
   43CLSA   C17  896   4.336   1.617  10.194
   43CLSA   H22  897   4.335   1.585   9.975
   43CLSA   H23  898   4.433   1.892  10.233
   43CLSA   H24  899   4.180   1.751  10.135
   43CLSA   H25  900   4.413   1.610  10.272
   43CLSA   H26  901   4.353   1.834   9.943
   43CLSA   O11  902   4.219   1.770  10.340
   43CLSA   H27  903   4.194   1.866  10.350
   43CLSA   O12  904   4.234   1.518  10.218
   43CLSA   H28  905   4.191   1.546  10.303
   43CLSA   O13  906   4.494   1.709  10.032
   43CLSA   C18  907   4.535   1.945   9.980
   43CLSA   H29  908   4.633   1.896   9.973
   43CLSA   H30  909   4.510   1.983   9.882
   43CLSA   O14  910   4.545   2.052  10.073
   43CLSA   H31  911   4.493   2.128  10.035
   43CLSA   O15  912   4.493   1.486  10.069
   44CLSB   C19  913   4.520   1.417   9.945
   44CLSB   C20  914   4.668   1.420   9.741
   44CLSB   C21  915   4.619   1.503   9.861
   44CLSB   C22  916   4.578   1.278   9.985
   44CLSB   C23  917   4.722   1.282   9.787
   44CLSB   H32  918   4.562   1.586   9.818
   44CLSB   H33  919   4.587   1.406   9.668
   44CLSB   H34  920   4.662   1.293  10.055
   44CLSB   H35  921   4.816   1.303   9.843
   44CLSB   H36  922   4.428   1.402   9.889
   44CLSB   O16  923   4.626   1.211   9.867
   44CLSB   C24  924   4.473   1.188  10.051
   44CLSB   H37  925   4.520   1.098  10.089
   44CLSB   H38  926   4.429   1.241  10.137
   44CLSB   O17  927   4.369   1.152   9.960
   44CLSB   H39  928   4.406   1.087   9.899
   44CLSB   O18  929   4.774   1.496   9.687
   44CLSB   H40  930   4.796   1.548   9.768
   44CLSB   O19  931   4.730   1.553   9.939
   44CLSB   H41  932   4.690   1.606  10.015
   44CLSB   O20  933   4.746   1.203   9.671
   45CLSA   C25  934   4.829   1.085   9.690
   45CLSA   C26  935   4.890   0.829   9.561
   45CLSA   C27  936   4.914   1.073   9.562
   45CLSA   C28  937   4.732   0.964   9.711
   45CLSA   C29  938   4.802   0.830   9.689
   45CLSA   H42  939   4.829   0.826   9.470
   45CLSA   H43  940   4.895   1.096   9.778
   45CLSA   H44  941   4.655   0.973   9.634
   45CLSA   H45  942   4.871   0.812   9.775
   45CLSA   H46  943   4.848   1.082   9.475
   45CLSA   O21  944   4.673   0.957   9.842
   45CLSA   H47  945   4.647   1.051   9.867
   45CLSA   O22  946   4.701   0.729   9.687
   45CLSA   H48  947   4.648   0.747   9.770
   45CLSA   O23  948   4.979   0.943   9.559
   45CLSA   C30  949   5.022   1.184   9.548
   45CLSA   H49  950   5.122   1.136   9.549
   45CLSA   H50  951   5.012   1.233   9.451
   45CLSA   O24  952   5.018   1.280   9.653
   45CLSA   H51  953   4.968   1.357   9.618
   45CLSA   O25  954   4.975   0.718   9.571
   46CLSB   C31  955   4.996   0.649   9.449
   46CLSB   C32  956   5.151   0.643   9.251
   46CLSB   C33  957   5.103   0.729   9.368
   46CLSB   C34  958   5.044   0.507   9.488
   46CLSB   C35  959   5.195   0.503   9.297
   46CLSB   H52  960   5.052   0.817   9.324
   46CLSB   H53  961   5.073   0.635   9.174
   46CLSB   H54  962   5.124   0.515   9.561
   46CLSB   H55  963   5.287   0.516   9.357
   46CLSB   H56  964   4.904   0.642   9.391
   46CLSB   O26  965   5.092   0.436   9.371
   46CLSB   C36  966   4.928   0.424   9.549
   46CLSB   H57  967   4.967   0.331   9.590
   46CLSB   H58  968   4.883   0.480   9.633
   46CLSB   O27  969   4.827   0.395   9.452
   46CLSB   H59  970   4.866   0.330   9.390
   46CLSB   O28  971   5.265   0.713   9.201
   46CLSB   H60  972   5.285   0.764   9.283
   46CLSB   O29  973   5.214   0.773   9.451
   46CLSB   H61  974   5.175   0.823   9.529
   46CLSB   O30  975   5.218   0.421   9.182
   47CLSA   C37  976   5.292   0.299   9.205
   47CLSA   C38  977   5.339   0.037   9.079
   47CLSA   C39  978   5.376   0.279   9.077
   47CLSA   C40  979   5.190   0.184   9.228
   47CLSA   C41  980   5.250   0.045   9.207
   47CLSA   H62  981   5.278   0.037   8.987
   47CLSA   H63  982   5.360   0.308   9.292
   47CLSA   H64  983   5.110   0.196   9.153
   47CLSA   H65  984   5.316   0.022   9.292
   47CLSA   H66  985   5.311   0.289   8.990
   47CLSA   O31  986   5.131   0.182   9.360
   47CLSA   H67  987   5.107   0.276   9.382
   47CLSA   O32  988   5.139  -0.047   9.205
   47CLSA   H68  989   5.092  -0.029   9.288
   47CLSA   O33  990   5.434   0.146   9.078
   47CLSA   C42  991   5.491   0.383   9.060
   47CLSA   H69  992   5.587   0.330   9.057
   47CLSA   H70  993   5.480   0.435   8.964
   47CLSA   O34  994   5.496   0.479   9.166
   47CLSA   H71  995   5.450   0.560   9.134
   47CLSA   O35  996   5.418  -0.079   9.091
   48CLSB   C43  997   5.443  -0.147   8.968
   48CLSB   C44  998   5.588  -0.144   8.761
   48CLSB   C45  999   5.536  -0.059   8.879
   48CLSB   C46 1000   5.507  -0.283   9.008
   48CLSB   C47 1001   5.649  -0.277   8.809
   48CLSB   H72 1002   5.476   0.021   8.836
   48CLSB   H73 1003   5.507  -0.161   8.690
   48CLSB   H74 1004   5.591  -0.264   9.075
   48CLSB   H75 1005   5.740  -0.252   8.864
   48CLSB   H76 1006   5.349  -0.166   8.915
   48CLSB   O36 1007   5.555  -0.352   8.891
   48CLSB   C48 1008   5.405  -0.376   9.079
   48CLSB   H77 1009   5.460  -0.464   9.117
   48CLSB   H78 1010   5.363  -0.324   9.165
   48CLSB   O37 1011   5.302  -0.418   8.991
   48CLSB   H79 1012   5.343  -0.478   8.926
   48CLSB   O38 1013   5.690  -0.063   8.705
   48CLSB   H80 1014   5.709  -0.008   8.785
   48CLSB   O39 1015   5.646  -0.002   8.955
   48CLSB   H81 1016   5.605   0.050   9.032
   48CLSB   O40 1017   5.676  -0.359   8.693
   49CLSA   C49 1018   5.768  -0.468   8.714
   49CLSA   C50 1019   5.845  -0.727   8.593
   49CLSA   C51 1020   5.849  -0.479   8.584
   49CLSA   C52 1021   5.684  -0.597   8.742
   49CLSA   C53 1022   5.768  -0.724   8.729
   49CLSA   H82 1023   5.775  -0.736   8.510
   49CLSA   H83 1024   5.836  -0.450   8.799
   49CLSA   H84 1025   5.606  -0.601   8.665
   49CLSA   H85 1026   5.843  -0.726   8.809
   49CLSA   H86 1027   5.779  -0.477   8.500
   49CLSA   O41 1028   5.623  -0.602   8.874
   49CLSA   H87 1029   5.588  -0.509   8.894
   49CLSA   O42 1030   5.675  -0.834   8.746
   49CLSA   H88 1031   5.622  -0.805   8.824
   49CLSA   O43 1032   5.922  -0.606   8.581
   49CLSA   C54 1033   5.951  -0.362   8.565
   49CLSA   H89 1034   6.052  -0.402   8.566
   49CLSA   H90 1035   5.934  -0.316   8.467
   49CLSA   O44 1036   5.939  -0.262   8.668
   49CLSA   H91 1037   5.882  -0.192   8.632
   49CLSA   O45 1038   5.939  -0.833   8.599
   50CLSB   C55 1039   5.974  -0.888   8.470
   50CLSB   C56 1040   6.178  -0.997   8.358
   50CLSB   C57 1041   6.128  -0.904   8.470
   50CLSB   C58 1042   5.900  -1.024   8.456
   50CLSB   C59 1043   6.095  -1.129   8.354
   50CLSB   H92 1044   6.173  -0.804   8.455
   50CLSB   H93 1045   6.171  -0.945   8.262
   50CLSB   H94 1046   5.916  -1.082   8.548
   50CLSB   H95 1047   6.115  -1.187   8.444
   50CLSB   H96 1048   5.947  -0.821   8.387
   50CLSB   O46 1049   5.954  -1.096   8.343
   50CLSB   C60 1050   5.748  -1.008   8.434
   50CLSB   H97 1051   5.703  -1.109   8.427
   50CLSB   H98 1052   5.703  -0.959   8.521
   50CLSB   O47 1053   5.723  -0.935   8.314
   50CLSB   H99 1054   5.781  -0.977   8.247
   50CLSB   O48 1055   6.315  -1.021   8.391
   50CLSB  H100 1056   6.310  -1.013   8.489
   50CLSB   O49 1057   6.169  -0.955   8.599
   50CLSB  H101 1058   6.100  -0.915   8.659
   50CLSB   O50 1059   6.117  -1.206   8.238
   50CLSB  H102 1060   6.035  -1.192   8.187
   51CLSA    H1 1061   9.057   2.533   6.512
   51CLSA    C1 1062   9.058   2.495   6.409
   51CLSA    C2 1063   8.996   2.488   6.130
   51CLSA    C3 1064   9.125   2.598   6.314
   51CLSA    C4 1065   8.915   2.461   6.368
   51CLSA    C5 1066   8.911   2.399   6.226
   51CLSA    H2 1067   8.935   2.518   6.045
   51CLSA    H3 1068   9.117   2.403   6.413
   51CLSA    H4 1069   8.853   2.552   6.368
   51CLSA    H5 1070   8.964   2.302   6.232
   51CLSA    H6 1071   9.116   2.696   6.364
   51CLSA    O1 1072   8.866   2.368   6.462
   51CLSA    H7 1073   8.780   2.339   6.426
   51CLSA    O2 1074   8.776   2.378   6.180
   51CLSA    H8 1075   8.781   2.344   6.086
   51CLSA    O3 1076   9.045   2.608   6.194
   51CLSA    C6 1077   9.275   2.576   6.284
   51CLSA    H9 1078   9.305   2.648   6.207
   51CLSA   H10 1079   9.335   2.600   6.374
   51CLSA    O4 1080   9.308   2.443   6.241
   51CLSA   H11 1081   9.231   2.419   6.179
   51CLSA    O5 1082   9.111   2.414   6.087
   52CLSB    C7 1083   9.128   2.414   5.945
   52CLSB    C8 1084   9.287   2.468   5.763
   52CLSB    C9 1085   9.271   2.466   5.917
   52CLSB   C10 1086   9.104   2.273   5.885
   52CLSB   C11 1087   9.249   2.331   5.700
   52CLSB   H12 1088   9.277   2.570   5.951
   52CLSB   H13 1089   9.227   2.547   5.719
   52CLSB   H14 1090   9.180   2.204   5.924
   52CLSB   H15 1091   9.330   2.262   5.728
   52CLSB   H16 1092   9.058   2.484   5.897
   52CLSB    O6 1093   9.119   2.282   5.741
   52CLSB   C12 1094   8.965   2.213   5.920
   52CLSB   H17 1095   8.947   2.125   5.857
   52CLSB   H18 1096   8.969   2.177   6.023
   52CLSB    O7 1097   8.857   2.307   5.907
   52CLSB   H19 1098   8.836   2.308   5.811
   52CLSB    O8 1099   9.423   2.491   5.743
   52CLSB   H20 1100   9.457   2.458   5.830
   52CLSB    O9 1101   9.376   2.384   5.978
   52CLSB   H21 1102   9.377   2.395   6.078
   52CLSB   O10 1103   9.244   2.349   5.558
   53CLSA   C13 1104   9.261   2.230   5.479
   53CLSA   C14 1105   9.223   2.135   5.203
   53CLSA   C15 1106   9.353   2.270   5.361
   53CLSA   C16 1107   9.120   2.187   5.432
   53CLSA   C17 1108   9.125   2.088   5.314
   53CLSA   H22 1109   9.184   2.223   5.150
   53CLSA   H23 1110   9.307   2.149   5.537
   53CLSA   H24 1111   9.069   2.278   5.396
   53CLSA   H25 1112   9.160   1.991   5.350
   53CLSA   H26 1113   9.314   2.362   5.316
   53CLSA   O11 1114   9.039   2.127   5.537
   53CLSA   H27 1115   9.054   2.181   5.620
   53CLSA   O12 1116   8.989   2.076   5.267
   53CLSA   H28 1117   8.936   2.054   5.347
   53CLSA   O13 1118   9.351   2.164   5.263
   53CLSA   C18 1119   9.501   2.296   5.403
   53CLSA   H29 1120   9.566   2.225   5.351
   53CLSA   H30 1121   9.529   2.397   5.372
   53CLSA   O14 1122   9.522   2.281   5.543
   53CLSA   H31 1123   9.523   2.372   5.582
   53CLSA   O15 1124   9.246   2.026   5.117
   54CLSB   C19 1125   9.282   2.063   4.982
   54CLSB   C20 1126   9.477   2.127   4.837
   54CLSB   C21 1127   9.430   2.112   4.982
   54CLSB   C22 1128   9.260   1.935   4.896
   54CLSB   C23 1129   9.450   1.997   4.756
   54CLSB   H32 1130   9.430   2.214   5.024
   54CLSB   H33 1131   9.428   2.212   4.788
   54CLSB   H34 1132   9.314   1.851   4.943
   54CLSB   H35 1133   9.519   1.920   4.796
   54CLSB   H36 1134   9.217   2.142   4.946
   54CLSB   O16 1135   9.312   1.957   4.764
   54CLSB   C24 1136   9.111   1.899   4.883
   54CLSB   H37 1137   9.100   1.803   4.833
   54CLSB   H38 1138   9.067   1.889   4.983
   54CLSB   O17 1139   9.040   1.998   4.808
   54CLSB   H39 1140   9.064   1.988   4.715
   54CLSB   O18 1141   9.617   2.146   4.848
   54CLSB   H40 1142   9.629   2.105   4.937
   54CLSB   O19 1143   9.518   2.025   5.058
   54CLSB   H41 1144   9.480   2.020   5.151
   54CLSB   O20 1145   9.477   2.025   4.618
   55CLSA   C25 1146   9.492   1.909   4.532
   55CLSA   C26 1147   9.482   1.837   4.248
   55CLSA   C27 1148   9.603   1.947   4.431
   55CLSA   C28 1149   9.353   1.884   4.464
   55CLSA   C29 1150   9.364   1.795   4.341
   55CLSA   H42 1151   9.460   1.930   4.195
   55CLSA   H43 1152   9.522   1.819   4.589
   55CLSA   H44 1153   9.318   1.982   4.431
   55CLSA   H45 1154   9.386   1.691   4.374
   55CLSA   H46 1155   9.580   2.045   4.389
   55CLSA   O21 1156   9.256   1.821   4.550
   55CLSA   H47 1157   9.264   1.866   4.640
   55CLSA   O22 1158   9.237   1.799   4.275
   55CLSA   H48 1159   9.172   1.778   4.347
   55CLSA   O23 1160   9.604   1.849   4.324
   55CLSA   C30 1161   9.744   1.955   4.494
   55CLSA   H49 1162   9.808   1.878   4.447
   55CLSA   H50 1163   9.790   2.052   4.470
   55CLSA   O24 1164   9.745   1.934   4.635
   55CLSA   H51 1165   9.746   2.022   4.676
   55CLSA   O25 1166   9.504   1.729   4.161
   56CLSB   C31 1167   9.535   1.767   4.028
   56CLSB   C32 1168   9.731   1.820   3.878
   56CLSB   C33 1169   9.685   1.808   4.025
   56CLSB   C34 1170   9.502   1.644   3.939
   56CLSB   C35 1171   9.694   1.694   3.796
   56CLSB   H52 1172   9.693   1.909   4.068
   56CLSB   H53 1173   9.688   1.910   3.831
   56CLSB   H54 1174   9.549   1.556   3.983
   56CLSB   H55 1175   9.756   1.612   3.835
   56CLSB   H56 1176   9.474   1.852   3.995
   56CLSB   O26 1177   9.554   1.664   3.805
   56CLSB   C36 1178   9.350   1.621   3.929
   56CLSB   H57 1179   9.330   1.525   3.880
   56CLSB   H58 1180   9.307   1.615   4.030
   56CLSB   O27 1181   9.286   1.726   3.856
   56CLSB   H59 1182   9.313   1.716   3.763
   56CLSB   O28 1183   9.872   1.830   3.886
   56CLSB   H60 1184   9.882   1.788   3.976
   56CLSB   O29 1185   9.769   1.715   4.098
   56CLSB   H61 1186   9.730   1.707   4.190
   56CLSB   O30 1187   9.718   1.720   3.658
   57CLSA   C37 1188   9.722   1.604   3.572
   57CLSA   C38 1189   9.697   1.534   3.287
   57CLSA   C39 1190   9.829   1.638   3.465
   57CLSA   C40 1191   9.581   1.584   3.511
   57CLSA   C41 1192   9.581   1.497   3.385
   57CLSA   H62 1193   9.677   1.629   3.235
   57CLSA   H63 1194   9.754   1.513   3.627
   57CLSA   H64 1195   9.544   1.684   3.481
   57CLSA   H65 1196   9.599   1.392   3.415
   57CLSA   H66 1197   9.808   1.737   3.424
   57CLSA   O31 1198   9.486   1.523   3.600
   57CLSA   H67 1199   9.497   1.567   3.689
   57CLSA   O32 1200   9.450   1.510   3.326
   57CLSA   H68 1201   9.390   1.487   3.399
   57CLSA   O33 1202   9.822   1.540   3.359
   57CLSA   C42 1203   9.975   1.641   3.520
   57CLSA   H69 1204  10.035   1.567   3.467
   57CLSA   H70 1205  10.020   1.740   3.499
   57CLSA   O34 1206   9.982   1.615   3.660
   57CLSA   H71 1207   9.988   1.702   3.706
   57CLSA   O35 1208   9.711   1.426   3.198
   58CLSB   C43 1209   9.746   1.463   3.064
   58CLSB   C44 1210   9.940   1.531   2.918
   58CLSB   C45 1211   9.891   1.520   3.064
   58CLSB   C46 1212   9.730   1.334   2.979
   58CLSB   C47 1213   9.920   1.399   2.841
   58CLSB   H72 1214   9.888   1.621   3.103
   58CLSB   H73 1215   9.889   1.614   2.868
   58CLSB   H74 1216   9.786   1.253   3.028
   58CLSB   H75 1217   9.989   1.326   2.884
   58CLSB   H76 1218   9.677   1.540   3.027
   58CLSB   O36 1219   9.782   1.354   2.847
   58CLSB   C48 1220   9.582   1.291   2.967
   58CLSB   H77 1221   9.578   1.192   2.918
   58CLSB   H78 1222   9.538   1.281   3.066
   58CLSB   O37 1223   9.507   1.385   2.889
   58CLSB   H79 1224   9.539   1.378   2.798
   58CLSB   O38 1225  10.078   1.557   2.931
   58CLSB   H80 1226  10.090   1.519   3.022
   58CLSB   O39 1227   9.982   1.439   3.143
   58CLSB   H81 1228   9.943   1.434   3.237
   58CLSB   O40 1229   9.948   1.423   2.701
   59CLSA   C49 1230   9.974   1.305   2.621
   59CLSA   C50 1231   9.973   1.218   2.339
   59CLSA   C51 1232  10.082   1.348   2.520
   59CLSA   C52 1233   9.840   1.266   2.551
   59CLSA   C53 1234   9.862   1.167   2.437
   59CLSA   H82 1235   9.939   1.308   2.286
   59CLSA   H83 1236  10.010   1.221   2.682
   59CLSA   H84 1237   9.799   1.358   2.507
   59CLSA   H85 1238   9.898   1.072   2.478
   59CLSA   H86 1239  10.052   1.443   2.476
   59CLSA   O41 1240   9.742   1.205   2.639
   59CLSA   H87 1241   9.744   1.256   2.725
   59CLSA   O42 1242   9.733   1.148   2.375
   59CLSA   H88 1243   9.674   1.137   2.453
   59CLSA   O43 1244  10.093   1.247   2.414
   59CLSA   C54 1245  10.223   1.366   2.585
   59CLSA   H89 1246  10.292   1.292   2.544
   59CLSA   H90 1247  10.261   1.465   2.559
   59CLSA   O44 1248  10.219   1.352   2.728
   59CLSA   H91 1249  10.212   1.442   2.765
   59CLSA   O45 1250  10.007   1.111   2.251
   60CLSB   C55 1251  10.057   1.155   2.123
   60CLSB   C56 1252  10.223   1.069   1.945
   60CLSB   C57 1253  10.181   1.065   2.094
   60CLSB   C58 1254   9.944   1.135   2.019
   60CLSB   C59 1255  10.099   1.050   1.852
   60CLSB   H92 1256  10.265   1.103   2.154
   60CLSB   H93 1257  10.271   1.166   1.923
   60CLSB   H94 1258   9.902   1.034   2.033
   60CLSB   H95 1259  10.061   0.948   1.863
   60CLSB   H96 1260  10.090   1.260   2.124
   60CLSB   O46 1261   9.997   1.147   1.886
   60CLSB   C60 1262   9.828   1.237   2.034
   60CLSB   H97 1263   9.752   1.214   1.958
   60CLSB   H98 1264   9.782   1.225   2.132
   60CLSB   O47 1265   9.879   1.370   2.015
   60CLSB   H99 1266   9.933   1.364   1.934
   60CLSB   O48 1267  10.317   0.963   1.932
   60CLSB  H100 1268  10.283   0.902   2.002
   60CLSB   O49 1269  10.150   0.930   2.132
   60CLSB  H101 1270  10.088   0.946   2.209
   60CLSB   O50 1271  10.125   1.079   1.716
   60CLSB  H102 1272  10.080   1.164   1.704
   61CLSA    H1 1273   5.483   6.049   2.420
   61CLSA    C1 1274   5.460   6.155   2.434
   61CLSA    C2 1275   5.300   6.391   2.439
   61CLSA    C3 1276   5.357   6.174   2.548
   61CLSA    C4 1277   5.412   6.213   2.301
   61CLSA    C5 1278   5.386   6.364   2.312
   61CLSA    H2 1279   5.210   6.447   2.410
   61CLSA    H3 1280   5.556   6.202   2.460
   61CLSA    H4 1281   5.319   6.162   2.270
   61CLSA    H5 1282   5.483   6.412   2.330
   61CLSA    H6 1283   5.304   6.078   2.558
   61CLSA    O1 1284   5.514   6.188   2.206
   61CLSA    H7 1285   5.486   6.236   2.126
   61CLSA    O2 1286   5.328   6.418   2.191
   61CLSA    H8 1287   5.308   6.514   2.207
   61CLSA    O3 1288   5.258   6.270   2.505
   61CLSA    C6 1289   5.415   6.207   2.688
   61CLSA    H9 1290   5.331   6.230   2.755
   61CLSA   H10 1291   5.465   6.118   2.729
   61CLSA    O4 1292   5.508   6.317   2.689
   61CLSA   H11 1293   5.466   6.384   2.624
   61CLSA    O5 1294   5.378   6.465   2.532
   62CLSB    C7 1295   5.311   6.583   2.581
   62CLSB    C8 1296   5.236   6.700   2.787
   62CLSB    C9 1297   5.311   6.574   2.736
   62CLSB   C10 1298   5.381   6.712   2.530
   62CLSB   C11 1299   5.295   6.829   2.725
   62CLSB   H12 1300   5.250   6.487   2.764
   62CLSB   H13 1301   5.130   6.692   2.764
   62CLSB   H14 1302   5.483   6.716   2.572
   62CLSB   H15 1303   5.394   6.842   2.773
   62CLSB   H16 1304   5.206   6.585   2.548
   62CLSB    O6 1305   5.306   6.826   2.581
   62CLSB   C12 1306   5.393   6.720   2.376
   62CLSB   H17 1307   5.422   6.823   2.348
   62CLSB   H18 1308   5.475   6.655   2.346
   62CLSB    O7 1309   5.274   6.681   2.307
   62CLSB   H19 1310   5.216   6.760   2.310
   62CLSB    O8 1311   5.259   6.699   2.925
   62CLSB   H20 1312   5.342   6.644   2.925
   62CLSB    O9 1313   5.444   6.566   2.795
   62CLSB   H21 1314   5.487   6.477   2.775
   62CLSB   O10 1315   5.206   6.937   2.758
   63CLSA   C13 1316   5.265   7.068   2.757
   63CLSA   C14 1317   5.182   7.350   2.757
   63CLSA   C15 1318   5.208   7.141   2.881
   63CLSA   C16 1319   5.221   7.135   2.624
   63CLSA   C17 1320   5.238   7.288   2.627
   63CLSA   H22 1321   5.073   7.346   2.760
   63CLSA   H23 1322   5.374   7.064   2.762
   63CLSA   H24 1323   5.113   7.115   2.613
   63CLSA   H25 1324   5.346   7.311   2.622
   63CLSA   H26 1325   5.099   7.128   2.883
   63CLSA   O11 1326   5.291   7.084   2.508
   63CLSA   H27 1327   5.298   6.985   2.519
   63CLSA   O12 1328   5.174   7.337   2.508
   63CLSA   H28 1329   5.212   7.284   2.434
   63CLSA   O13 1330   5.239   7.282   2.871
   63CLSA   C18 1331   5.264   7.087   3.016
   63CLSA   H29 1332   5.317   7.169   3.068
   63CLSA   H30 1333   5.182   7.056   3.080
   63CLSA   O14 1334   5.356   6.980   2.999
   63CLSA   H31 1335   5.306   6.896   3.018
   63CLSA   O15 1336   5.231   7.482   2.765
   64CLSB   C19 1337   5.147   7.572   2.841
   64CLSB   C20 1338   5.096   7.652   3.074
   64CLSB   C21 1339   5.164   7.541   2.993
   64CLSB   C22 1340   5.193   7.716   2.803
   64CLSB   C23 1341   5.145   7.792   3.030
   64CLSB   H32 1342   5.108   7.449   3.014
   64CLSB   H33 1343   4.987   7.645   3.065
   64CLSB   H34 1344   5.303   7.723   2.817
   64CLSB   H35 1345   5.251   7.800   3.061
   64CLSB   H36 1346   5.043   7.560   2.813
   64CLSB   O16 1347   5.129   7.812   2.888
   64CLSB   C24 1348   5.158   7.751   2.657
   64CLSB   H37 1349   5.204   7.847   2.630
   64CLSB   H38 1350   5.201   7.675   2.590
   64CLSB   O17 1351   5.017   7.759   2.638
   64CLSB   H39 1352   4.987   7.841   2.679
   64CLSB   O18 1353   5.139   7.628   3.207
   64CLSB   H40 1354   5.221   7.577   3.186
   64CLSB   O19 1355   5.304   7.525   3.031
   64CLSB   H41 1356   5.341   7.451   2.973
   64CLSB   O20 1357   5.063   7.890   3.095
   65CLSA   C25 1358   5.114   8.026   3.094
   65CLSA   C26 1359   5.020   8.302   3.128
   65CLSA   C27 1360   5.075   8.086   3.231
   65CLSA   C28 1361   5.047   8.099   2.973
   65CLSA   C29 1362   5.056   8.251   2.985
   65CLSA   H42 1363   4.913   8.294   3.148
   65CLSA   H43 1364   5.224   8.028   3.082
   65CLSA   H44 1365   4.940   8.073   2.977
   65CLSA   H45 1366   5.162   8.281   2.967
   65CLSA   H46 1367   4.968   8.065   3.248
   65CLSA   O21 1368   5.103   8.066   2.844
   65CLSA   H47 1369   5.117   7.967   2.844
   65CLSA   O22 1370   4.972   8.307   2.884
   65CLSA   H48 1371   5.000   8.260   2.801
   65CLSA   O23 1372   5.095   8.229   3.228
   65CLSA   C30 1373   5.154   8.026   3.350
   65CLSA   H49 1374   5.213   8.106   3.397
   65CLSA   H50 1375   5.083   7.989   3.426
   65CLSA   O24 1376   5.242   7.921   3.312
   65CLSA   H51 1377   5.195   7.837   3.330
   65CLSA   O25 1378   5.067   8.434   3.137
   66CLSB   C31 1379   4.981   8.522   3.207
   66CLSB   C32 1380   4.937   8.611   3.439
   66CLSB   C33 1381   5.005   8.498   3.360
   66CLSB   C34 1382   5.019   8.664   3.161
   66CLSB   C35 1383   4.979   8.750   3.387
   66CLSB   H52 1384   4.952   8.404   3.387
   66CLSB   H53 1385   4.828   8.600   3.436
   66CLSB   H54 1386   5.127   8.677   3.167
   66CLSB   H55 1387   5.086   8.763   3.411
   66CLSB   H56 1388   4.876   8.502   3.183
   66CLSB   O26 1389   4.954   8.763   3.245
   66CLSB   C36 1390   4.974   8.690   3.015
   66CLSB   H57 1391   5.016   8.785   2.980
   66CLSB   H58 1392   5.014   8.611   2.950
   66CLSB   O27 1393   4.831   8.693   3.004
   66CLSB   H59 1394   4.802   8.775   3.047
   66CLSB   O28 1395   4.987   8.595   3.571
   66CLSB   H60 1396   5.069   8.544   3.548
   66CLSB   O29 1397   5.146   8.487   3.393
   66CLSB   H61 1398   5.184   8.416   3.333
   66CLSB   O30 1399   4.897   8.849   3.448
   67CLSA   C37 1400   4.944   8.985   3.437
   67CLSA   C38 1401   4.842   9.261   3.458
   67CLSA   C39 1402   4.903   9.052   3.571
   67CLSA   C40 1403   4.875   9.051   3.314
   67CLSA   C41 1404   4.879   9.204   3.318
   67CLSA   H62 1405   4.735   9.251   3.480
   67CLSA   H63 1406   5.054   8.990   3.427
   67CLSA   H64 1407   4.769   9.020   3.317
   67CLSA   H65 1408   4.981   9.238   3.296
   67CLSA   H66 1409   4.797   9.031   3.590
   67CLSA   O31 1410   4.933   9.014   3.188
   67CLSA   H67 1411   4.948   8.915   3.191
   67CLSA   O32 1412   4.789   9.248   3.214
   67CLSA   H68 1413   4.821   9.202   3.134
   67CLSA   O33 1414   4.921   9.195   3.560
   67CLSA   C42 1415   4.983   9.001   3.695
   67CLSA   H69 1416   5.036   9.085   3.740
   67CLSA   H70 1417   4.913   8.962   3.770
   67CLSA   O34 1418   5.078   8.900   3.661
   67CLSA   H71 1419   5.037   8.813   3.682
   67CLSA   O35 1420   4.885   9.395   3.460
   68CLSB   C43 1421   4.802   9.484   3.534
   68CLSB   C44 1422   4.747   9.562   3.768
   68CLSB   C45 1423   4.812   9.449   3.686
   68CLSB   C46 1424   4.852   9.627   3.501
   68CLSB   C47 1425   4.801   9.700   3.728
   68CLSB   H72 1426   4.753   9.359   3.704
   68CLSB   H73 1427   4.638   9.558   3.757
   68CLSB   H74 1428   4.960   9.631   3.518
   68CLSB   H75 1429   4.906   9.703   3.761
   68CLSB   H76 1430   4.697   9.474   3.501
   68CLSB   O36 1431   4.788   9.724   3.586
   68CLSB   C48 1432   4.823   9.665   3.354
   68CLSB   H77 1433   4.873   9.761   3.332
   68CLSB   H78 1434   4.866   9.590   3.287
   68CLSB   O37 1435   4.683   9.679   3.330
   68CLSB   H79 1436   4.653   9.757   3.378
   68CLSB   O38 1437   4.785   9.533   3.901
   68CLSB   H80 1438   4.865   9.478   3.880
   68CLSB   O39 1439   4.949   9.426   3.728
   68CLSB   H81 1440   4.987   9.353   3.669
   68CLSB   O40 1441   4.722   9.801   3.794
   69CLSA   C49 1442   4.782   9.933   3.801
   69CLSA   C50 1443   4.704  10.216   3.839
   69CLSA   C51 1444   4.738   9.990   3.937
   69CLSA   C52 1445   4.726  10.017   3.681
   69CLSA   C53 1446   4.752  10.166   3.699
   69CLSA   H82 1447   4.595  10.210   3.846
   69CLSA   H83 1448   4.891   9.929   3.795
   69CLSA   H84 1449   4.617  10.002   3.680
   69CLSA   H85 1450   4.861  10.185   3.694
   69CLSA   H86 1451   4.630   9.974   3.948
   69CLSA   O41 1452   4.782   9.981   3.552
   69CLSA   H87 1453   4.787   9.880   3.549
   69CLSA   O42 1454   4.687  10.232   3.588
   69CLSA   H88 1455   4.713  10.175   3.511
   69CLSA   O43 1456   4.765  10.134   3.941
   69CLSA   C54 1457   4.810   9.922   4.058
   69CLSA   H89 1458   4.872   9.996   4.109
   69CLSA   H90 1459   4.734   9.888   4.129
   69CLSA   O44 1460   4.893   9.812   4.017
   69CLSA   H91 1461   4.839   9.731   4.029
   69CLSA   O45 1462   4.754  10.348   3.859
   70CLSB   C55 1463   4.674  10.428   3.948
   70CLSB   C56 1464   4.711  10.619   4.117
   70CLSB   C57 1465   4.774  10.499   4.043
   70CLSB   C58 1466   4.594  10.528   3.860
   70CLSB   C59 1467   4.632  10.710   4.018
   70CLSB   H92 1468   4.808  10.426   4.117
   70CLSB   H93 1469   4.643  10.581   4.195
   70CLSB   H94 1470   4.663  10.575   3.789
   70CLSB   H95 1471   4.702  10.759   3.949
   70CLSB   H96 1472   4.606  10.367   4.009
   70CLSB   O46 1473   4.536  10.630   3.945
   70CLSB   C60 1474   4.479  10.461   3.781
   70CLSB   H97 1475   4.429  10.538   3.720
   70CLSB   H98 1476   4.521  10.388   3.712
   70CLSB   O47 1477   4.386  10.401   3.871
   70CLSB   H99 1478   4.369  10.470   3.938
   70CLSB   O48 1479   4.822  10.686   4.176
   70CLSB  H100 1480   4.892  10.664   4.110
   70CLSB   O49 1481   4.887  10.544   3.965
   70CLSB  H101 1482   4.892  10.473   3.894
   70CLSB   O50 1483   4.550  10.805   4.082
   70CLSB  H102 1484   4.461  10.769   4.068
   71CLSA    H1 1485   1.865  10.510   0.940
   71CLSA    C1 1486   1.870  10.408   0.981
   71CLSA    C2 1487   1.983  10.182   1.113
   71CLSA    C3 1488   1.890  10.412   1.134
   71CLSA    C4 1489   1.980  10.330   0.909
   71CLSA    C5 1490   1.985  10.184   0.957
   71CLSA    H2 1491   2.070  10.126   1.149
   71CLSA    H3 1492   1.773  10.363   0.956
   71CLSA    H4 1493   2.077  10.378   0.929
   71CLSA    H5 1494   1.891  10.137   0.925
   71CLSA    H6 1495   1.935  10.511   1.157
   71CLSA    O1 1496   1.950  10.335   0.771
   71CLSA    H7 1497   2.015  10.275   0.729
   71CLSA    O2 1498   2.097  10.112   0.900
   71CLSA    H8 1499   2.097  10.020   0.940
   71CLSA    O3 1500   1.989  10.314   1.170
   71CLSA    C6 1501   1.761  10.402   1.221
   71CLSA    H9 1502   1.792  10.394   1.326
   71CLSA   H10 1503   1.703  10.495   1.212
   71CLSA    O4 1504   1.676  10.291   1.187
   71CLSA   H11 1505   1.743  10.216   1.169
   71CLSA    O5 1506   1.862  10.123   1.157
   72CLSB    C7 1507   1.881  10.018   1.253
   72CLSB    C8 1508   1.821   9.941   1.481
   72CLSB    C9 1509   1.796  10.054   1.377
   72CLSB   C10 1510   1.843   9.879   1.194
   72CLSB   C11 1511   1.798   9.800   1.419
   72CLSB   H12 1512   1.836  10.146   1.421
   72CLSB   H13 1513   1.922   9.948   1.521
   72CLSB   H14 1514   1.735   9.879   1.172
   72CLSB   H15 1515   1.688   9.792   1.405
   72CLSB   H16 1516   1.986  10.014   1.286
   72CLSB    O6 1517   1.870   9.779   1.295
   72CLSB   C12 1518   1.919   9.844   1.063
   72CLSB   H17 1519   1.904   9.737   1.041
   72CLSB   H18 1520   1.872   9.900   0.982
   72CLSB    O7 1521   2.059   9.875   1.068
   72CLSB   H19 1522   2.100   9.799   1.115
   72CLSB    O8 1523   1.725   9.964   1.580
   72CLSB   H20 1524   1.660  10.015   1.525
   72CLSB    O9 1525   1.653  10.067   1.349
   72CLSB   H21 1526   1.635  10.149   1.295
   72CLSB   O10 1527   1.845   9.704   1.513
   73CLSA   C13 1528   1.788   9.572   1.501
   73CLSA   C14 1529   1.837   9.297   1.593
   73CLSA   C15 1530   1.760   9.524   1.645
   73CLSA   C16 1531   1.894   9.485   1.428
   73CLSA   C17 1532   1.868   9.334   1.445
   73CLSA   H22 1533   1.926   9.305   1.656
   73CLSA   H23 1534   1.695   9.573   1.443
   73CLSA   H24 1535   1.991   9.506   1.476
   73CLSA   H25 1536   1.780   9.307   1.385
   73CLSA   H26 1537   1.851   9.541   1.705
   73CLSA   O11 1538   1.904   9.513   1.286
   73CLSA   H27 1539   1.900   9.612   1.275
   73CLSA   O12 1540   1.984   9.267   1.394
   73CLSA   H28 1541   1.998   9.305   1.303
   73CLSA   O13 1542   1.732   9.382   1.642
   73CLSA   C18 1543   1.642   9.598   1.714
   73CLSA   H29 1544   1.565   9.525   1.740
   73CLSA   H30 1545   1.678   9.642   1.807
   73CLSA   O14 1546   1.584   9.698   1.632
   73CLSA   H31 1547   1.620   9.785   1.662
   73CLSA   O15 1548   1.783   9.167   1.593
   74CLSB   C19 1549   1.804   9.094   1.717
   74CLSB   C20 1550   1.711   9.058   1.947
   74CLSB   C21 1551   1.707   9.151   1.825
   74CLSB   C22 1552   1.777   8.944   1.683
   74CLSB   C23 1553   1.685   8.910   1.907
   74CLSB   H32 1554   1.749   9.246   1.859
   74CLSB   H33 1555   1.806   9.067   2.000
   74CLSB   H34 1556   1.679   8.936   1.634
   74CLSB   H35 1557   1.580   8.904   1.874
   74CLSB   H36 1558   1.907   9.105   1.750
   74CLSB   O16 1559   1.777   8.867   1.804
   74CLSB   C24 1560   1.885   8.886   1.590
   74CLSB   H37 1561   1.856   8.786   1.558
   74CLSB   H38 1562   1.893   8.948   1.500
   74CLSB   O17 1563   2.012   8.880   1.655
   74CLSB   H39 1564   2.009   8.807   1.719
   74CLSB   O18 1565   1.603   9.102   2.027
   74CLSB   H40 1566   1.550   9.146   1.956
   74CLSB   O19 1567   1.572   9.168   1.775
   74CLSB   H41 1568   1.579   9.229   1.696
   74CLSB   O20 1569   1.710   8.828   2.021
   75CLSA   C25 1570   1.659   8.693   2.014
   75CLSA   C26 1571   1.699   8.430   2.139
   75CLSA   C27 1572   1.611   8.659   2.157
   75CLSA   C28 1573   1.778   8.602   1.965
   75CLSA   C29 1574   1.752   8.454   1.995
   75CLSA   H42 1575   1.777   8.445   2.214
   75CLSA   H43 1576   1.575   8.684   1.943
   75CLSA   H44 1577   1.865   8.632   2.024
   75CLSA   H45 1578   1.673   8.417   1.926
   75CLSA   H46 1579   1.691   8.686   2.228
   75CLSA   O21 1580   1.805   8.610   1.825
   75CLSA   H47 1581   1.800   8.707   1.800
   75CLSA   O22 1582   1.875   8.385   1.969
   75CLSA   H48 1583   1.901   8.415   1.878
   75CLSA   O23 1584   1.586   8.516   2.166
   75CLSA   C30 1585   1.484   8.736   2.200
   75CLSA   H49 1586   1.403   8.663   2.218
   75CLSA   H50 1587   1.502   8.787   2.295
   75CLSA   O24 1588   1.439   8.829   2.102
   75CLSA   H51 1589   1.473   8.917   2.130
   75CLSA   O25 1590   1.646   8.300   2.141
   76CLSB   C31 1591   1.672   8.229   2.261
   76CLSB   C32 1592   1.573   8.183   2.488
   76CLSB   C33 1593   1.569   8.278   2.368
   76CLSB   C34 1594   1.657   8.079   2.226
   76CLSB   C35 1595   1.558   8.035   2.445
   76CLSB   H52 1596   1.604   8.376   2.404
   76CLSB   H53 1597   1.665   8.196   2.546
   76CLSB   H54 1598   1.563   8.064   2.172
   76CLSB   H55 1599   1.455   8.023   2.407
   76CLSB   H56 1600   1.774   8.247   2.298
   76CLSB   O26 1601   1.657   7.998   2.346
   76CLSB   C36 1602   1.773   8.030   2.136
   76CLSB   H57 1603   1.753   7.929   2.100
   76CLSB   H58 1604   1.782   8.095   2.048
   76CLSB   O27 1605   1.897   8.030   2.208
   76CLSB   H59 1606   1.892   7.958   2.273
   76CLSB   O28 1607   1.459   8.219   2.565
   76CLSB   H60 1608   1.408   8.262   2.492
   76CLSB   O29 1609   1.435   8.290   2.313
   76CLSB   H61 1610   1.441   8.347   2.232
   76CLSB   O30 1611   1.584   7.951   2.557
   77CLSA   C37 1612   1.542   7.814   2.544
   77CLSA   C38 1613   1.596   7.549   2.663
   77CLSA   C39 1614   1.497   7.772   2.686
   77CLSA   C40 1615   1.664   7.730   2.493
   77CLSA   C41 1616   1.648   7.580   2.519
   77CLSA   H62 1617   1.673   7.566   2.739
   77CLSA   H63 1618   1.457   7.803   2.475
   77CLSA   H64 1619   1.752   7.764   2.550
   77CLSA   H65 1620   1.573   7.539   2.449
   77CLSA   H66 1621   1.575   7.800   2.757
   77CLSA   O31 1622   1.689   7.743   2.352
   77CLSA   H67 1623   1.682   7.840   2.330
   77CLSA   O32 1624   1.777   7.521   2.492
   77CLSA   H68 1625   1.798   7.552   2.402
   77CLSA   O33 1626   1.478   7.629   2.690
   77CLSA   C42 1627   1.366   7.841   2.733
   77CLSA   H69 1628   1.290   7.764   2.754
   77CLSA   H70 1629   1.384   7.895   2.827
   77CLSA   O34 1630   1.312   7.932   2.636
   77CLSA   H71 1631   1.341   8.022   2.662
   77CLSA   O35 1632   1.550   7.416   2.662
   78CLSB   C43 1633   1.572   7.344   2.783
   78CLSB   C44 1634   1.482   7.310   3.016
   78CLSB   C45 1635   1.481   7.404   2.895
   78CLSB   C46 1636   1.539   7.196   2.751
   78CLSB   C47 1637   1.449   7.164   2.975
   78CLSB   H72 1638   1.526   7.498   2.928
   78CLSB   H73 1639   1.578   7.315   3.068
   78CLSB   H74 1640   1.440   7.191   2.705
   78CLSB   H75 1641   1.344   7.164   2.944
   78CLSB   H76 1642   1.677   7.352   2.814
   78CLSB   O36 1643   1.538   7.117   2.872
   78CLSB   C48 1644   1.643   7.134   2.654
   78CLSB   H77 1645   1.607   7.034   2.624
   78CLSB   H78 1646   1.650   7.195   2.564
   78CLSB   O37 1647   1.771   7.122   2.716
   78CLSB   H79 1648   1.763   7.053   2.784
   78CLSB   O38 1649   1.378   7.360   3.098
   78CLSB   H80 1650   1.327   7.407   3.027
   78CLSB   O39 1651   1.346   7.429   2.848
   78CLSB   H81 1652   1.353   7.490   2.767
   78CLSB   O40 1653   1.471   7.079   3.090
   79CLSA   C49 1654   1.409   6.949   3.084
   79CLSA   C50 1655   1.432   6.680   3.204
   79CLSA   C51 1656   1.366   6.917   3.228
   79CLSA   C52 1657   1.516   6.847   3.031
   79CLSA   C53 1658   1.474   6.702   3.055
   79CLSA   H82 1659   1.519   6.690   3.270
   79CLSA   H83 1660   1.322   6.948   3.017
   79CLSA   H84 1661   1.607   6.865   3.089
   79CLSA   H85 1662   1.386   6.680   2.994
   79CLSA   H86 1663   1.449   6.939   3.294
   79CLSA   O41 1664   1.545   6.859   2.889
   79CLSA   H87 1665   1.549   6.957   2.868
   79CLSA   O42 1666   1.586   6.622   3.012
   79CLSA   H88 1667   1.611   6.663   2.926
   79CLSA   O43 1668   1.330   6.776   3.239
   79CLSA   C54 1669   1.243   7.003   3.275
   79CLSA   H89 1670   1.158   6.937   3.293
   79CLSA   H90 1671   1.269   7.052   3.369
   79CLSA   O44 1672   1.204   7.101   3.178
   79CLSA   H91 1673   1.248   7.185   3.204
   79CLSA   O45 1674   1.371   6.552   3.213
   80CLSB   C55 1675   1.382   6.491   3.344
   80CLSB   C56 1676   1.244   6.331   3.491
   80CLSB   C57 1677   1.241   6.434   3.376
   80CLSB   C58 1678   1.490   6.380   3.334
   80CLSB   C59 1679   1.358   6.227   3.470
   80CLSB   H92 1680   1.177   6.517   3.406
   80CLSB   H93 1681   1.259   6.384   3.586
   80CLSB   H94 1682   1.470   6.319   3.244
   80CLSB   H95 1683   1.335   6.164   3.383
   80CLSB   H96 1684   1.408   6.563   3.422
   80CLSB   O46 1685   1.484   6.296   3.451
   80CLSB   C60 1686   1.634   6.436   3.322
   80CLSB   H97 1687   1.704   6.351   3.314
   80CLSB   H98 1688   1.643   6.495   3.231
   80CLSB   O47 1689   1.665   6.514   3.439
   80CLSB   H99 1690   1.636   6.458   3.514
   80CLSB   O48 1691   1.115   6.271   3.487
   80CLSB  H100 1692   1.095   6.279   3.391
   80CLSB   O49 1693   1.188   6.372   3.257
   80CLSB  H101 1694   1.229   6.430   3.185
   80CLSB   O50 1695   1.384   6.147   3.584
   80CLSB  H102 1696   1.468   6.183   3.616
   81CLSA    H1 1697   6.028   0.152  -0.275
   81CLSA    C1 1698   5.944   0.153  -0.204
   81CLSA    C2 1699   5.809   0.115   0.044
   81CLSA    C3 1700   5.975   0.248  -0.086
   81CLSA    C4 1701   5.915   0.011  -0.160
   81CLSA    C5 1702   5.793   0.005  -0.065
   81CLSA    H2 1703   5.801   0.068   0.143
   81CLSA    H3 1704   5.858   0.191  -0.261
   81CLSA    H4 1705   6.003  -0.030  -0.106
   81CLSA    H5 1706   5.706   0.035  -0.126
   81CLSA    H6 1707   6.086   0.257  -0.081
   81CLSA    O1 1708   5.890  -0.064  -0.276
   81CLSA    H7 1709   5.860  -0.152  -0.244
   81CLSA    O2 1710   5.772  -0.127  -0.012
   81CLSA    H8 1711   5.695  -0.122   0.052
   81CLSA    O3 1712   5.936   0.183   0.037
   81CLSA    C6 1713   5.920   0.393  -0.097
   81CLSA    H9 1714   5.939   0.443  -0.001
   81CLSA   H10 1715   5.976   0.448  -0.173
   81CLSA    O4 1716   5.780   0.400  -0.128
   81CLSA   H11 1717   5.740   0.324  -0.072
   81CLSA    O5 1718   5.708   0.214   0.027
   82CLSB    C7 1719   5.635   0.242   0.147
   82CLSB    C8 1720   5.567   0.424   0.301
   82CLSB    C9 1721   5.644   0.395   0.170
   82CLSB   C10 1722   5.488   0.193   0.136
   82CLSB   C11 1723   5.424   0.362   0.298
   82CLSB   H12 1724   5.749   0.420   0.188
   82CLSB   H13 1725   5.622   0.385   0.387
   82CLSB   H14 1726   5.437   0.250   0.056
   82CLSB   H15 1727   5.367   0.424   0.226
   82CLSB   H16 1728   5.681   0.193   0.233
   82CLSB    O6 1729   5.422   0.222   0.262
   82CLSB   C12 1730   5.474   0.043   0.102
   82CLSB   H17 1731   5.370   0.011   0.119
   82CLSB   H18 1732   5.494   0.030  -0.005
   82CLSB    O7 1733   5.564  -0.041   0.176
   82CLSB   H19 1734   5.520  -0.054   0.263
   82CLSB    O8 1735   5.557   0.563   0.306
   82CLSB   H20 1736   5.567   0.581   0.208
   82CLSB    O9 1737   5.589   0.475   0.060
   82CLSB   H21 1738   5.648   0.469  -0.021
   82CLSB   O10 1739   5.370   0.373   0.430
   83CLSA   C13 1740   5.227   0.370   0.439
   83CLSA   C14 1741   5.014   0.336   0.640
   83CLSA   C15 1742   5.189   0.478   0.543
   83CLSA   C16 1743   5.187   0.228   0.485
   83CLSA   C17 1744   5.044   0.221   0.539
   83CLSA   H22 1745   5.069   0.321   0.734
   83CLSA   H23 1746   5.179   0.393   0.343
   83CLSA   H24 1747   5.255   0.201   0.568
   83CLSA   H25 1748   4.973   0.232   0.456
   83CLSA   H26 1749   5.251   0.464   0.633
   83CLSA   O11 1750   5.200   0.128   0.380
   83CLSA   H27 1751   5.285   0.147   0.331
   83CLSA   O12 1752   5.029   0.090   0.598
   83CLSA   H28 1753   5.058   0.027   0.528
   83CLSA   O13 1754   5.049   0.462   0.579
   83CLSA   C18 1755   5.211   0.624   0.494
   83CLSA   H29 1756   5.114   0.677   0.494
   83CLSA   H30 1757   5.277   0.676   0.562
   83CLSA   O14 1758   5.264   0.630   0.362
   83CLSA   H31 1759   5.361   0.647   0.371
   83CLSA   O15 1760   4.875   0.341   0.659
   84CLSB   C19 1761   4.834   0.395   0.786
   84CLSB   C20 1762   4.788   0.611   0.908
   84CLSB   C21 1763   4.855   0.550   0.784
   84CLSB   C22 1764   4.685   0.354   0.805
   84CLSB   C23 1765   4.641   0.564   0.922
   84CLSB   H32 1766   4.962   0.569   0.795
   84CLSB   H33 1767   4.845   0.586   0.999
   84CLSB   H34 1768   4.628   0.384   0.715
   84CLSB   H35 1769   4.585   0.611   0.839
   84CLSB   H36 1770   4.894   0.352   0.867
   84CLSB   O16 1771   4.630   0.420   0.920
   84CLSB   C24 1772   4.670   0.202   0.826
   84CLSB   H37 1773   4.564   0.175   0.825
   84CLSB   H38 1774   4.717   0.149   0.743
   84CLSB   O17 1775   4.728   0.160   0.949
   84CLSB   H39 1776   4.669   0.189   1.021
   84CLSB   O18 1777   4.790   0.750   0.883
   84CLSB   H40 1778   4.797   0.746   0.785
   84CLSB   O19 1779   4.805   0.611   0.662
   84CLSB   H41 1780   4.853   0.565   0.585
   84CLSB   O20 1781   4.592   0.607   1.049
   85CLSA   C25 1782   4.448   0.604   1.066
   85CLSA   C26 1783   4.247   0.602   1.280
   85CLSA   C27 1784   4.414   0.728   1.152
   85CLSA   C28 1785   4.414   0.469   1.138
   85CLSA   C29 1786   4.275   0.471   1.201
   85CLSA   H42 1787   4.304   0.605   1.374
   85CLSA   H43 1788   4.396   0.609   0.969
   85CLSA   H44 1789   4.487   0.458   1.219
   85CLSA   H45 1790   4.199   0.467   1.119
   85CLSA   H46 1791   4.482   0.730   1.239
   85CLSA   O21 1792   4.417   0.354   1.051
   85CLSA   H47 1793   4.498   0.364   0.993
   85CLSA   O22 1794   4.264   0.354   1.282
   85CLSA   H48 1795   4.292   0.280   1.222
   85CLSA   O23 1796   4.278   0.717   1.199
   85CLSA   C30 1797   4.432   0.862   1.077
   85CLSA   H49 1798   4.333   0.912   1.070
   85CLSA   H50 1799   4.497   0.929   1.135
   85CLSA   O24 1800   4.484   0.847   0.945
   85CLSA   H51 1801   4.579   0.864   0.951
   85CLSA   O25 1802   4.109   0.607   1.301
   86CLSB   C31 1803   4.071   0.656   1.429
   86CLSB   C32 1804   4.013   0.870   1.548
   86CLSB   C33 1805   4.082   0.812   1.424
   86CLSB   C34 1806   3.927   0.606   1.453
   86CLSB   C35 1807   3.871   0.815   1.566
   86CLSB   H52 1808   4.189   0.838   1.432
   86CLSB   H53 1809   4.073   0.852   1.638
   86CLSB   H54 1810   3.866   0.628   1.365
   86CLSB   H55 1811   3.810   0.855   1.483
   86CLSB   H56 1812   4.137   0.618   1.507
   86CLSB   O26 1813   3.869   0.671   1.569
   86CLSB   C36 1814   3.924   0.453   1.478
   86CLSB   H57 1815   3.821   0.417   1.479
   86CLSB   H58 1816   3.975   0.402   1.395
   86CLSB   O27 1817   3.987   0.420   1.602
   86CLSB   H59 1818   3.928   0.451   1.673
   86CLSB   O28 1819   4.005   1.010   1.521
   86CLSB   H60 1820   4.012   1.003   1.422
   86CLSB   O29 1821   4.027   0.868   1.301
   86CLSB   H61 1822   4.071   0.820   1.225
   86CLSB   O30 1823   3.820   0.855   1.693
   87CLSA   C37 1824   3.678   0.841   1.712
   87CLSA   C38 1825   3.480   0.824   1.931
   87CLSA   C39 1826   3.639   0.961   1.802
   87CLSA   C40 1827   3.652   0.704   1.781
   87CLSA   C41 1828   3.514   0.696   1.848
   87CLSA   H62 1829   3.539   0.830   2.024
   87CLSA   H63 1830   3.623   0.848   1.617
   87CLSA   H64 1831   3.727   0.693   1.860
   87CLSA   H65 1832   3.436   0.688   1.771
   87CLSA   H66 1833   3.706   0.965   1.888
   87CLSA   O31 1834   3.657   0.591   1.692
   87CLSA   H67 1835   3.738   0.604   1.634
   87CLSA   O32 1836   3.515   0.576   1.929
   87CLSA   H68 1837   3.541   0.507   1.866
   87CLSA   O33 1838   3.503   0.942   1.850
   87CLSA   C42 1839   3.647   1.099   1.731
   87CLSA   H69 1840   3.548   1.146   1.731
   87CLSA   H70 1841   3.715   1.166   1.787
   87CLSA   O34 1842   3.693   1.089   1.595
   87CLSA   H71 1843   3.789   1.110   1.596
   87CLSA   O35 1844   3.342   0.823   1.955
   88CLSB   C43 1845   3.302   0.876   2.081
   88CLSB   C44 1846   3.260   1.091   2.206
   88CLSB   C45 1847   3.329   1.029   2.083
   88CLSB   C46 1848   3.152   0.839   2.097
   88CLSB   C47 1849   3.111   1.049   2.214
   88CLSB   H72 1850   3.436   1.045   2.097
   88CLSB   H73 1851   3.313   1.063   2.297
   88CLSB   H74 1852   3.099   0.873   2.007
   88CLSB   H75 1853   3.060   1.098   2.130
   88CLSB   H76 1854   3.360   0.828   2.162
   88CLSB   O36 1855   3.096   0.905   2.212
   88CLSB   C48 1856   3.131   0.687   2.114
   88CLSB   H77 1857   3.022   0.666   2.110
   88CLSB   H78 1858   3.177   0.634   2.031
   88CLSB   O37 1859   3.184   0.641   2.238
   88CLSB   H79 1860   3.128   0.677   2.308
   88CLSB   O38 1861   3.268   1.230   2.182
   88CLSB   H80 1862   3.279   1.226   2.083
   88CLSB   O39 1863   3.286   1.094   1.960
   88CLSB   H81 1864   3.333   1.047   1.883
   88CLSB   O40 1865   3.059   1.094   2.341
   89CLSA   C49 1866   2.914   1.100   2.350
   89CLSA   C50 1867   2.700   1.104   2.554
   89CLSA   C51 1868   2.884   1.222   2.439
   89CLSA   C52 1869   2.865   0.967   2.416
   89CLSA   C53 1870   2.721   0.977   2.464
   89CLSA   H82 1871   2.755   1.093   2.648
   89CLSA   H83 1872   2.867   1.112   2.252
   89CLSA   H84 1873   2.928   0.950   2.504
   89CLSA   H85 1874   2.654   0.988   2.377
   89CLSA   H86 1875   2.948   1.218   2.527
   89CLSA   O41 1876   2.871   0.851   2.328
   89CLSA   H87 1877   2.957   0.857   2.277
   89CLSA   O42 1878   2.693   0.852   2.532
   89CLSA   H88 1879   2.731   0.785   2.469
   89CLSA   O43 1880   2.744   1.220   2.481
   89CLSA   C54 1881   2.912   1.358   2.366
   89CLSA   H89 1882   2.818   1.413   2.354
   89CLSA   H90 1883   2.978   1.419   2.429
   89CLSA   O44 1884   2.971   1.340   2.236
   89CLSA   H91 1885   3.067   1.350   2.248
   89CLSA   O45 1886   2.560   1.120   2.573
   90CLSB   C55 1887   2.526   1.190   2.696
   90CLSB   C56 1888   2.340   1.347   2.780
   90CLSB   C57 1889   2.417   1.293   2.657
   90CLSB   C58 1890   2.474   1.083   2.796
   90CLSB   C59 1891   2.296   1.230   2.873
   90CLSB   H92 1892   2.467   1.378   2.607
   90CLSB   H93 1893   2.405   1.416   2.835
   90CLSB   H94 1894   2.400   1.019   2.744
   90CLSB   H95 1895   2.219   1.170   2.822
   90CLSB   H96 1896   2.611   1.244   2.738
   90CLSB   O46 1897   2.411   1.149   2.908
   90CLSB   C60 1898   2.586   0.992   2.851
   90CLSB   H97 1899   2.540   0.918   2.920
   90CLSB   H98 1900   2.632   0.936   2.770
   90CLSB   O47 1901   2.683   1.071   2.921
   90CLSB   H99 1902   2.629   1.129   2.979
   90CLSB   O48 1903   2.230   1.417   2.724
   90CLSB  H100 1904   2.217   1.365   2.642
   90CLSB   O49 1905   2.325   1.231   2.565
   90CLSB  H101 1906   2.385   1.168   2.517
   90CLSB   O50 1907   2.250   1.273   2.999
   90CLSB  H102 1908   2.323   1.247   3.058
   91CLSA    H1 1909  11.126   1.817   1.145
   91CLSA    C1 1910  11.024   1.826   1.186
   91CLSA    C2 1911  10.768   1.741   1.278
   91CLSA    C3 1912  11.013   1.754   1.322
   91CLSA    C4 1913  10.925   1.774   1.083
   91CLSA    C5 1914  10.779   1.793   1.131
   91CLSA    H2 1915  10.688   1.666   1.283
   91CLSA    H3 1916  11.009   1.934   1.199
   91CLSA    H4 1917  10.942   1.667   1.065
   91CLSA    H5 1918  10.762   1.902   1.136
   91CLSA    H6 1919  11.094   1.678   1.324
   91CLSA    O1 1920  10.946   1.848   0.964
   91CLSA    H7 1921  10.873   1.821   0.905
   91CLSA    O2 1922  10.684   1.733   1.041
   91CLSA    H8 1923  10.593   1.744   1.081
   91CLSA    O3 1924  10.890   1.679   1.325
   91CLSA    C6 1925  11.032   1.842   1.449
   91CLSA    H9 1926  11.009   1.780   1.536
   91CLSA   H10 1927  11.138   1.871   1.458
   91CLSA    O4 1928  10.951   1.960   1.451
   91CLSA   H11 1929  10.862   1.928   1.414
   91CLSA    O5 1930  10.741   1.851   1.364
   92CLSB    C7 1931  10.628   1.829   1.451
   92CLSB    C8 1932  10.556   1.825   1.688
   92CLSB    C9 1933  10.678   1.852   1.595
   92CLSB   C10 1934  10.510   1.922   1.414
   92CLSB   C11 1935  10.432   1.906   1.643
   92CLSB   H12 1936  10.753   1.776   1.619
   92CLSB   H13 1937  10.533   1.719   1.690
   92CLSB   H14 1938  10.540   2.027   1.431
   92CLSB   H15 1939  10.454   2.012   1.669
   92CLSB   H16 1940  10.594   1.725   1.444
   92CLSB    O6 1941  10.399   1.891   1.503
   92CLSB   C12 1942  10.464   1.910   1.266
   92CLSB   H17 1943  10.367   1.960   1.254
   92CLSB   H18 1944  10.536   1.964   1.204
   92CLSB    O7 1945  10.456   1.774   1.220
   92CLSB   H19 1946  10.369   1.741   1.253
   92CLSB    O8 1947  10.598   1.870   1.814
   92CLSB   H20 1948  10.668   1.934   1.783
   92CLSB    O9 1949  10.731   1.987   1.619
   92CLSB   H21 1950  10.819   1.999   1.572
   92CLSB   O10 1951  10.320   1.858   1.718
   93CLSA   C13 1952  10.209   1.949   1.731
   93CLSA   C14 1953   9.926   1.949   1.810
   93CLSA   C15 1954  10.161   1.937   1.877
   93CLSA   C16 1955  10.102   1.904   1.629
   93CLSA   C17 1956   9.963   1.963   1.659
   93CLSA   H22 1957   9.905   1.845   1.837
   93CLSA   H23 1958  10.239   2.053   1.710
   93CLSA   H24 1959  10.093   1.794   1.639
   93CLSA   H25 1960   9.964   2.070   1.635
   93CLSA   H26 1961  10.149   1.830   1.901
   93CLSA   O11 1962  10.135   1.936   1.491
   93CLSA   H27 1963  10.232   1.917   1.479
   93CLSA   O12 1964   9.871   1.895   1.572
   93CLSA   H28 1965   9.909   1.904   1.482
   93CLSA   O13 1966  10.033   2.003   1.890
   93CLSA   C18 1967  10.260   1.998   1.981
   93CLSA   H29 1968  10.208   2.079   2.035
   93CLSA   H30 1969  10.287   1.922   2.054
   93CLSA   O14 1970  10.377   2.052   1.921
   93CLSA   H31 1971  10.449   1.985   1.933
   93CLSA   O15 1972   9.815   2.034   1.834
   94CLSB   C19 1973   9.732   1.992   1.944
   94CLSB   C20 1974   9.707   2.005   2.194
   94CLSB   C21 1975   9.805   2.025   2.078
   94CLSB   C22 1976   9.598   2.069   1.927
   94CLSB   C23 1977   9.575   2.083   2.170
   94CLSB   H32 1978   9.884   1.950   2.091
   94CLSB   H33 1979   9.687   1.899   2.210
   94CLSB   H34 1980   9.619   2.177   1.917
   94CLSB   H35 1981   9.600   2.190   2.177
   94CLSB   H36 1982   9.713   1.885   1.939
   94CLSB   O16 1983   9.515   2.048   2.044
   94CLSB   C24 1984   9.518   2.020   1.804
   94CLSB   H37 1985   9.432   2.085   1.789
   94CLSB   H38 1986   9.582   2.028   1.715
   94CLSB   O17 1987   9.474   1.886   1.821
   94CLSB   H39 1988   9.401   1.887   1.884
   94CLSB   O18 1989   9.774   2.062   2.305
   94CLSB   H40 1990   9.835   2.122   2.255
   94CLSB   O19 1991   9.862   2.159   2.078
   94CLSB   H41 1992   9.924   2.164   1.999
   94CLSB   O20 1993   9.482   2.043   2.272
   95CLSA   C25 1994   9.366   2.129   2.287
   95CLSA   C26 1995   9.095   2.122   2.400
   95CLSA   C27 1996   9.337   2.131   2.439
   95CLSA   C28 1997   9.250   2.065   2.204
   95CLSA   C29 1998   9.113   2.118   2.245
   95CLSA   H42 1999   9.083   2.022   2.442
   95CLSA   H43 2000   9.386   2.232   2.251
   95CLSA   H44 2001   9.252   1.958   2.227
   95CLSA   H45 2002   9.104   2.223   2.210
   95CLSA   H46 2003   9.337   2.028   2.476
   95CLSA   O21 2004   9.260   2.087   2.062
   95CLSA   H47 2005   9.356   2.073   2.037
   95CLSA   O22 2006   9.015   2.036   2.181
   95CLSA   H48 2007   9.043   2.036   2.086
   95CLSA   O23 2008   9.207   2.190   2.462
   95CLSA   C30 2009   9.443   2.210   2.521
   95CLSA   H49 2010   9.393   2.296   2.569
   95CLSA   H50 2011   9.481   2.146   2.602
   95CLSA   O24 2012   9.551   2.258   2.442
   95CLSA   H51 2013   9.624   2.194   2.453
   95CLSA   O25 2014   8.984   2.205   2.425
   96CLSB   C31 2015   8.901   2.159   2.531
   96CLSB   C32 2016   8.868   2.182   2.779
   96CLSB   C33 2017   8.969   2.201   2.665
   96CLSB   C34 2018   8.763   2.227   2.508
   96CLSB   C35 2019   8.734   2.251   2.750
   96CLSB   H52 2020   9.051   2.130   2.683
   96CLSB   H53 2021   8.853   2.075   2.800
   96CLSB   H54 2022   8.778   2.333   2.492
   96CLSB   H55 2023   8.752   2.360   2.750
   96CLSB   H56 2024   8.889   2.050   2.528
   96CLSB   O26 2025   8.678   2.207   2.624
   96CLSB   C36 2026   8.691   2.167   2.385
   96CLSB   H57 2027   8.602   2.226   2.362
   96CLSB   H58 2028   8.757   2.172   2.298
   96CLSB   O27 2029   8.652   2.031   2.409
   96CLSB   H59 2030   8.580   2.033   2.474
   96CLSB   O28 2031   8.929   2.247   2.890
   96CLSB   H60 2032   8.989   2.306   2.838
   96CLSB   O29 2033   9.020   2.337   2.661
   96CLSB   H61 2034   9.079   2.344   2.581
   96CLSB   O30 2035   8.638   2.212   2.848
   97CLSA   C37 2036   8.519   2.292   2.855
   97CLSA   C38 2037   8.242   2.276   2.957
   97CLSA   C39 2038   8.482   2.294   3.006
   97CLSA   C40 2039   8.409   2.224   2.768
   97CLSA   C41 2040   8.267   2.270   2.803
   97CLSA   H62 2041   8.233   2.175   3.001
   97CLSA   H63 2042   8.536   2.396   2.821
   97CLSA   H64 2043   8.414   2.116   2.789
   97CLSA   H65 2044   8.253   2.373   2.766
   97CLSA   H66 2045   8.483   2.192   3.044
   97CLSA   O31 2046   8.423   2.246   2.627
   97CLSA   H67 2047   8.520   2.234   2.605
   97CLSA   O32 2048   8.178   2.180   2.735
   97CLSA   H68 2049   8.207   2.184   2.642
   97CLSA   O33 2050   8.349   2.349   3.021
   97CLSA   C42 2051   8.580   2.377   3.094
   97CLSA   H69 2052   8.525   2.458   3.142
   97CLSA   H70 2053   8.621   2.313   3.173
   97CLSA   O34 2054   8.688   2.433   3.019
   97CLSA   H71 2055   8.766   2.374   3.030
   97CLSA   O35 2056   8.127   2.353   2.977
   98CLSB   C43 2057   8.044   2.312   3.086
   98CLSB   C44 2058   8.020   2.321   3.337
   98CLSB   C45 2059   8.119   2.337   3.220
   98CLSB   C46 2060   7.913   2.393   3.072
   98CLSB   C47 2061   7.892   2.404   3.315
   98CLSB   H72 2062   8.195   2.260   3.232
   98CLSB   H73 2063   7.996   2.215   3.351
   98CLSB   H74 2064   7.938   2.499   3.064
   98CLSB   H75 2065   7.922   2.510   3.322
   98CLSB   H76 2066   8.021   2.204   3.077
   98CLSB   O36 2067   7.830   2.373   3.188
   98CLSB   C48 2068   7.831   2.351   2.947
   98CLSB   H77 2069   7.747   2.421   2.935
   98CLSB   H78 2070   7.894   2.359   2.858
   98CLSB   O37 2071   7.781   2.218   2.960
   98CLSB   H79 2072   7.713   2.220   3.030
   98CLSB   O38 2073   8.091   2.372   3.448
   98CLSB   H80 2074   8.155   2.429   3.397
   98CLSB   O39 2075   8.183   2.468   3.223
   98CLSB   H81 2076   8.244   2.473   3.142
   98CLSB   O40 2077   7.797   2.368   3.417
   99CLSA   C49 2078   7.689   2.462   3.438
   99CLSA   C50 2079   7.416   2.473   3.552
   99CLSA   C51 2080   7.661   2.459   3.589
   99CLSA   C52 2081   7.566   2.413   3.355
   99CLSA   C53 2082   7.436   2.482   3.397
   99CLSA   H82 2083   7.398   2.370   3.583
   99CLSA   H83 2084   7.715   2.564   3.406
   99CLSA   H84 2085   7.555   2.305   3.377
   99CLSA   H85 2086   7.443   2.588   3.372
   99CLSA   H86 2087   7.655   2.356   3.621
   99CLSA   O41 2088   7.578   2.433   3.212
   99CLSA   H87 2089   7.673   2.410   3.186
   99CLSA   O42 2090   7.331   2.419   3.321
   99CLSA   H88 2091   7.370   2.415   3.230
   99CLSA   O43 2092   7.534   2.526   3.617
   99CLSA   C54 2093   7.773   2.529   3.673
   99CLSA   H89 2094   7.731   2.617   3.723
   99CLSA   H90 2095   7.807   2.460   3.751
   99CLSA   O44 2096   7.884   2.571   3.592
   99CLSA   H91 2097   7.951   2.500   3.599
   99CLSA   O45 2098   7.309   2.561   3.587
  100CLSB   C55 2099   7.239   2.522   3.707
  100CLSB   C56 2100   7.113   2.639   3.899
  100CLSB   C57 2101   7.220   2.653   3.788
  100CLSB   C58 2102   7.104   2.459   3.664
  100CLSB   C59 2103   6.984   2.572   3.843
  100CLSB   H92 2104   7.316   2.677   3.836
  100CLSB   H93 2105   7.154   2.578   3.981
  100CLSB   H94 2106   7.057   2.525   3.589
  100CLSB   H95 2107   6.936   2.641   3.772
  100CLSB   H96 2108   7.297   2.451   3.768
  100CLSB   O46 2109   7.017   2.447   3.778
  100CLSB   C60 2110   7.120   2.319   3.600
  100CLSB   H97 2111   7.020   2.283   3.571
  100CLSB   H98 2112   7.180   2.326   3.510
  100CLSB   O47 2113   7.179   2.229   3.695
  100CLSB   H99 2114   7.128   2.244   3.778
  100CLSB   O48 2115   7.090   2.772   3.943
  100CLSB  H100 2116   7.110   2.821   3.860
  100CLSB   O49 2117   7.183   2.759   3.698
  100CLSB  H101 2118   7.232   2.731   3.615
  100CLSB   O50 2119   6.893   2.532   3.943
  100CLSB  H102 2120   6.902   2.435   3.942
  12.00000  12.00000  12.00000
