CLS single chain in water
 4712
    1CLSA    H1    1   1.454   3.303   0.618 -1.1229 -1.0005 -0.3683
    1CLSA    C1    2   1.469   3.240   0.706 -0.3891  0.3581  0.5154
    1CLSA    C2    3   1.599   2.976   0.743 -0.3446  0.6332 -0.2011
    1CLSA    C3    4   1.615   3.230   0.734  0.1929 -0.0896 -0.4920
    1CLSA    C4    5   1.394   3.103   0.684 -0.2854 -0.3269 -0.0124
    1CLSA    C5    6   1.450   2.993   0.779 -0.4442  0.6306  0.8240
    1CLSA    H2    7   1.609   2.906   0.659 -0.1128 -1.2060  1.2871
    1CLSA    H3    8   1.417   3.288   0.790  0.2879  0.1117  1.0851
    1CLSA    H4    9   1.409   3.070   0.580  1.5194  0.0629  0.0939
    1CLSA    H5   10   1.437   3.038   0.878 -0.0940  0.8799  0.7548
    1CLSA    H6   11   1.672   3.293   0.665  0.3074  0.2189 -0.1237
    1CLSA    O1   12   1.263   3.126   0.705 -0.3472  0.4420  0.6788
    1CLSA    H7   13   1.217   3.049   0.742 -2.3047  1.7049  1.0411
    1CLSA    O2   14   1.377   2.871   0.785  1.0948  0.1776  0.0674
    1CLSA    H8   15   1.384   2.838   0.694  0.6543  0.2106  0.0208
    1CLSA    O3   16   1.661   3.094   0.709  0.2246 -0.4149  0.5629
    1CLSA    C6   17   1.664   3.283   0.881  0.2069  0.0487 -0.6567
    1CLSA    H9   18   1.773   3.287   0.892  0.0542 -0.6134  1.5717
    1CLSA   H10   19   1.629   3.386   0.892  1.1983  0.3654 -0.3743
    1CLSA    O4   20   1.612   3.203   0.995  0.7416 -0.0969  0.2130
    1CLSA   H11   21   1.646   3.115   0.970 -1.3583 -0.4651 -1.6069
    1CLSA    O5   22   1.661   2.921   0.861  0.7300  0.0003 -0.2899
    2CLSB    C7   23   1.790   2.864   0.852  0.5400 -0.7685 -0.1943
    2CLSB    C8   24   2.025   2.913   0.874 -0.1257 -0.0938  0.3063
    2CLSB    C9   25   1.887   2.975   0.894  0.3963 -0.7141 -0.3835
    2CLSB   C10   26   1.804   2.727   0.928 -0.6359 -0.4835 -0.2689
    2CLSB   C11   27   2.044   2.785   0.963 -0.8366  0.3780  0.5179
    2CLSB   H12   28   1.877   3.062   0.828 -0.8540 -0.1449  0.5276
    2CLSB   H13   29   2.044   2.892   0.768 -1.1543 -0.3023  0.1566
    2CLSB   H14   30   1.768   2.743   1.030  0.5306 -2.2159  0.4548
    2CLSB   H15   31   2.033   2.824   1.065 -0.8549  1.9462 -0.0673
    2CLSB   H16   32   1.811   2.836   0.748  3.8725 -0.0538  0.1649
    2CLSB    O6   33   1.946   2.680   0.927  0.2182  0.0142  0.0697
    2CLSB   C12   34   1.717   2.609   0.857  0.0656  0.3410 -0.3281
    2CLSB   H17   35   1.709   2.533   0.935 -1.0047 -0.7597 -1.4643
    2CLSB   H18   36   1.618   2.646   0.827 -0.1239 -0.4455 -0.6802
    2CLSB    O7   37   1.787   2.552   0.753 -0.2347 -0.0914  0.2102
    2CLSB   H19   38   1.879   2.577   0.770 -0.4619  0.7979  0.1522
    2CLSB    O8   39   2.121   3.007   0.920 -0.4080 -0.3910 -0.0873
    2CLSB   H20   40   2.139   3.053   0.836  1.9598  0.3737  0.7604
    2CLSB    O9   41   1.869   3.015   1.035  0.0093 -0.1225  0.1672
    2CLSB   H21   42   1.923   3.093   1.058  2.2861 -1.4584 -0.3005
    2CLSB   O10   43   2.181   2.733   0.953  0.5286  0.1588 -0.1194
    3CLSA   C13   44   2.198   2.614   1.030  0.3920 -0.5169  0.1297
    3CLSA   C14   45   2.392   2.414   1.133 -0.4221  0.2359 -0.2060
    3CLSA   C15   46   2.293   2.642   1.150  0.2748 -0.7693  0.1369
    3CLSA   C16   47   2.251   2.503   0.936 -0.4948 -0.0286 -0.1238
    3CLSA   C17   48   2.305   2.374   1.009  0.2054 -0.2433 -0.3728
    3CLSA   H22   49   2.488   2.445   1.092  1.5286 -1.8064  2.4649
    3CLSA   H23   50   2.106   2.579   1.081  1.7663 -2.4841  1.4452
    3CLSA   H24   51   2.337   2.553   0.890 -0.8404  0.4762 -0.2257
    3CLSA   H25   52   2.212   2.327   1.044 -0.1311  0.1285 -0.7578
    3CLSA   H26   53   2.388   2.680   1.110 -0.3622  0.8419  0.0703
    3CLSA   O11   54   2.164   2.458   0.833  0.5906 -0.0017  0.1213
    3CLSA   H27   55   2.167   2.520   0.758 -1.1834 -1.7084 -1.4914
    3CLSA   O12   56   2.373   2.281   0.917 -0.1781  0.7107  0.2386
    3CLSA   H28   57   2.309   2.238   0.857  0.8475 -1.3557  0.5140
    3CLSA   O13   58   2.327   2.515   1.210  0.0372 -0.4472  0.0905
    3CLSA   C18   59   2.235   2.745   1.251  0.5026 -0.0701 -0.1767
    3CLSA   H29   60   2.302   2.767   1.336  0.4700 -0.8588  0.0553
    3CLSA   H30   61   2.205   2.833   1.192 -2.3050 -0.1064  1.0679
    3CLSA   O14   62   2.112   2.686   1.298 -0.3741  0.6082  0.5489
    3CLSA   H31   63   2.141   2.628   1.371 -0.4380 -1.9031 -1.2861
    3CLSA   O15   64   2.420   2.303   1.219 -0.0517  0.3813 -0.0929
    4CLSB   C19   65   2.501   2.325   1.337 -0.1386  0.2454  0.0117
    4CLSB   C20   66   2.476   2.377   1.584 -0.3612  0.0427  0.0780
    4CLSB   C21   67   2.401   2.357   1.452 -0.0672 -0.1711  0.2219
    4CLSB   C22   68   2.584   2.199   1.372 -0.2946 -0.4939  0.0355
    4CLSB   C23   69   2.566   2.253   1.611  0.2282 -0.5224  0.7144
    4CLSB   H32   70   2.363   2.455   1.422  3.6737  0.8744 -1.6806
    4CLSB   H33   71   2.540   2.466   1.574 -1.4935  1.0150  1.1939
    4CLSB   H34   72   2.515   2.114   1.383 -1.5104  0.5882  1.2307
    4CLSB   H35   73   2.498   2.170   1.629 -0.1422 -0.1380  1.1234
    4CLSB   H36   74   2.564   2.412   1.319  0.4056  0.1348  1.2715
    4CLSB   O16   75   2.651   2.235   1.497  0.7844  0.3119  0.1954
    4CLSB   C24   76   2.681   2.175   1.254 -0.3126 -0.4296 -0.4862
    4CLSB   H37   77   2.633   2.169   1.155  0.3369  2.6704 -1.0751
    4CLSB   H38   78   2.753   2.257   1.249  0.7619 -1.2702  0.5900
    4CLSB   O17   79   2.745   2.053   1.289  0.5702 -0.2551 -0.4472
    4CLSB   H39   80   2.838   2.074   1.308 -0.3019  2.3049  1.6302
    4CLSB   O18   81   2.384   2.400   1.691  0.0214  0.3210  0.0801
    4CLSB   H40   82   2.299   2.374   1.650 -1.3685  4.4134 -0.0354
    4CLSB   O19   83   2.300   2.251   1.462  0.0266 -0.0800 -0.6499
    4CLSB   H41   84   2.235   2.264   1.391 -0.7208 -1.5803 -0.2758
    4CLSB   O20   85   2.650   2.272   1.725  0.1082 -0.3259 -0.3617
    5CLSA   C25   86   2.656   2.155   1.818  0.3318  0.1102 -0.5444
    5CLSA   C26   87   2.837   2.019   2.012 -0.5151  0.1885  0.4438
    5CLSA   C27   88   2.714   2.215   1.949  0.1998  0.0830 -0.3513
    5CLSA   C28   89   2.765   2.056   1.772  0.5935 -0.2821  0.3425
    5CLSA   C29   90   2.780   1.951   1.881 -0.9430  0.2352  0.4351
    5CLSA   H42   91   2.931   2.072   1.995 -0.4431  0.3310  1.2348
    5CLSA   H43   92   2.558   2.110   1.837  0.3738  0.3450  0.2662
    5CLSA   H44   93   2.857   2.115   1.766  0.7478 -0.2424  2.5116
    5CLSA   H45   94   2.684   1.904   1.906 -1.9898  2.5209  1.0610
    5CLSA   H46   95   2.812   2.263   1.934  0.3918  1.0899  3.1716
    5CLSA   O21   96   2.728   1.989   1.648 -0.1877 -0.0980  0.2102
    5CLSA   H47   97   2.814   1.960   1.613 -0.0274  2.0048 -1.3392
    5CLSA   O22   98   2.869   1.845   1.843 -0.3708 -0.2213  0.1004
    5CLSA   H48   99   2.837   1.798   1.764 -0.6533 -1.6769  1.0413
    5CLSA   O23  100   2.737   2.114   2.049 -0.1187  0.5388  0.2858
    5CLSA   C30  101   2.617   2.325   1.997 -0.4523 -0.4769 -0.3178
    5CLSA   H49  102   2.643   2.362   2.097  1.5867  1.2423 -1.4153
    5CLSA   H50  103   2.612   2.408   1.926 -0.7802 -2.4736 -2.7547
    5CLSA   O24  104   2.485   2.273   2.005 -0.0097 -0.3179 -0.8665
    5CLSA   H51  105   2.431   2.354   2.019 -0.0228 -0.3309 -0.8430
    5CLSA   O25  106   2.850   1.926   2.125 -0.0465  0.3215  0.1927
    6CLSB   C31  107   2.924   1.972   2.237  0.0423  0.2360  0.3032
    6CLSB   C32  108   2.910   2.075   2.469  0.5225  0.3176  0.8601
    6CLSB   C33  109   2.837   2.056   2.335 -0.1600 -0.6764  0.1723
    6CLSB   C34  110   2.978   1.843   2.310 -0.1239 -0.7263  0.0453
    6CLSB   C35  111   2.949   1.933   2.523  0.1246  0.7383  0.2080
    6CLSB   H52  112   2.825   2.156   2.291  2.6607  0.0974  0.9659
    6CLSB   H53  113   2.996   2.140   2.448  0.4144  0.4755  0.9020
    6CLSB   H54  114   2.896   1.772   2.327  0.2920 -1.1379  0.3563
    6CLSB   H55  115   2.851   1.883   2.521  1.0497 -1.1391 -1.2075
    6CLSB   H56  116   3.016   2.025   2.209 -0.5055  1.4705  0.7352
    6CLSB   O26  117   3.043   1.877   2.429  0.3881  0.4653  0.0384
    6CLSB   C36  118   3.082   1.776   2.221 -0.7453  0.0296 -0.6081
    6CLSB   H57  119   3.050   1.800   2.118 -2.7140  1.5744  0.2852
    6CLSB   H58  120   3.178   1.828   2.229  0.4369 -1.9708 -1.1720
    6CLSB   O27  121   3.100   1.634   2.248  0.4429  0.5665  0.1553
    6CLSB   H59  122   3.195   1.617   2.257 -0.2710 -3.4266  3.3798
    6CLSB   O28  123   2.819   2.150   2.550  0.3469 -0.4142 -0.2349
    6CLSB   H60  124   2.735   2.113   2.517  0.2836 -0.0551 -0.4837
    6CLSB   O29  125   2.704   2.003   2.359 -0.5664 -0.2380 -0.1097
    6CLSB   H61  126   2.671   1.931   2.302 -2.5525 -0.4518  1.2000
    6CLSB   O30  127   3.004   1.929   2.658  0.2021 -0.2673 -0.0617
    7CLSA   C37  128   2.992   1.806   2.729 -0.2877 -0.0289  0.2564
    7CLSA   C38  129   3.056   1.654   2.981 -0.5088 -0.6105 -0.7652
    7CLSA   C39  130   2.938   1.839   2.868 -0.2340  0.6546 -0.1533
    7CLSA   C40  131   3.131   1.744   2.744 -0.5639 -0.2071  0.5345
    7CLSA   C41  132   3.134   1.626   2.847 -0.1887  0.6486 -0.1996
    7CLSA   H62  133   3.117   1.725   3.036  0.3380 -0.1895 -2.1859
    7CLSA   H63  134   2.922   1.738   2.679 -1.7203  1.1736  0.5588
    7CLSA   H64  135   3.200   1.819   2.784  2.9787 -2.7896 -0.2872
    7CLSA   H65  136   3.084   1.542   2.797 -2.1627  1.2690  0.6414
    7CLSA   H66  137   3.014   1.906   2.911 -1.6547  1.2280  1.5457
    7CLSA   O31  138   3.184   1.696   2.617  0.3203  0.0691 -0.2482
    7CLSA   H67  139   3.162   1.754   2.542  2.2057 -0.8151 -1.5845
    7CLSA   O32  140   3.274   1.583   2.869 -0.2159  0.2571  0.0496
    7CLSA   H68  141   3.276   1.491   2.838  1.0128  0.2307  0.1348
    7CLSA   O33  142   2.933   1.716   2.950  0.3665  0.1209 -0.4486
    7CLSA   C42  143   2.799   1.910   2.873 -1.5225 -0.5523  0.5957
    7CLSA   H69  144   2.772   1.948   2.972 -1.0169 -0.6141  0.7601
    7CLSA   H70  145   2.800   1.999   2.809  1.2049  0.7397  2.2581
    7CLSA   O34  146   2.697   1.815   2.817 -0.4158 -0.1168 -0.3914
    7CLSA   H71  147   2.718   1.729   2.858 -0.3544 -0.5256 -1.2636
    7CLSA   O35  148   3.038   1.530   3.056 -0.1380  0.0684  0.6166
    8CLSB   C43  149   3.028   1.559   3.196  0.0169 -0.1293 -0.0018
    8CLSB   C44  150   2.889   1.571   3.404 -0.6367  0.3546  0.7541
    8CLSB   C45  151   2.879   1.542   3.248 -0.3820 -0.8564  0.3786
    8CLSB   C46  152   3.129   1.472   3.269 -0.1760  0.2347 -0.6240
    8CLSB   C47  153   2.998   1.493   3.484 -0.1957 -0.0358  0.6042
    8CLSB   H72  154   2.823   1.620   3.195  0.3560 -1.7330 -1.8030
    8CLSB   H73  155   2.919   1.676   3.409  1.2079 -0.0544 -0.7047
    8CLSB   H74  156   3.116   1.364   3.257 -1.7256  0.1452  1.3913
    8CLSB   H75  157   2.976   1.386   3.492  2.1522 -0.5166  1.6200
    8CLSB   H76  158   3.056   1.663   3.216  1.3181 -0.8071  1.9878
    8CLSB   O36  159   3.126   1.502   3.419  0.4231  0.2639  0.3673
    8CLSB   C48  160   3.274   1.491   3.225 -0.2754  0.2203  0.6700
    8CLSB   H77  161   3.290   1.457   3.123  0.6308 -2.0326  1.5038
    8CLSB   H78  162   3.288   1.600   3.231 -1.0136  0.3361  0.4205
    8CLSB   O37  163   3.368   1.435   3.314  0.0745  0.0410 -0.2436
    8CLSB   H79  164   3.327   1.448   3.401 -1.2589  0.1340 -0.8582
    8CLSB   O38  165   2.761   1.550   3.464 -0.2013 -0.4633  0.1921
    8CLSB   H80  166   2.716   1.494   3.398 -0.3942  0.2738 -0.3137
    8CLSB   O39  167   2.829   1.403   3.231 -0.2333 -0.2189  0.2197
    8CLSB   H81  168   2.825   1.383   3.136  1.0068  2.0250 -0.3896
    8CLSB   O40  169   3.011   1.566   3.605  0.1868  0.3816  0.0198
    9CLSA   C49  170   3.093   1.497   3.703 -0.8887 -0.2544 -0.5603
    9CLSA   C50  171   3.196   1.498   3.989 -0.3775 -0.0310  0.8696
    9CLSA   C51  172   3.009   1.443   3.829 -0.6787 -0.1009 -0.2838
    9CLSA   C52  173   3.189   1.608   3.758 -0.1216 -0.2730  0.4971
    9CLSA   C53  174   3.281   1.555   3.871  0.1122 -0.8113 -0.3543
    9CLSA   H82  175   3.130   1.570   4.039 -0.3122  0.1452  0.7036
    9CLSA   H83  176   3.148   1.415   3.655 -0.8957 -0.9665  0.6176
    9CLSA   H84  177   3.126   1.685   3.805  1.7626  0.3151  2.1854
    9CLSA   H85  178   3.332   1.464   3.835  0.2973 -1.6001  1.7258
    9CLSA   H86  179   2.950   1.523   3.877 -3.1647 -2.3405  0.6265
    9CLSA   O41  180   3.264   1.680   3.659  0.6958  0.1591 -0.2973
    9CLSA   H87  181   3.213   1.759   3.634  2.3942  1.2047 -0.6022
    9CLSA   O42  182   3.373   1.656   3.920  0.1209 -0.2502  0.9613
    9CLSA   H88  183   3.430   1.605   3.980  0.0364 -0.1962  1.0873
    9CLSA   O43  184   3.108   1.390   3.933 -0.1035 -0.8570  0.3639
    9CLSA   C54  185   2.914   1.329   3.790  0.1171  0.1873  0.1834
    9CLSA   H89  186   2.832   1.366   3.727 -2.7082 -0.5023  3.1679
    9CLSA   H90  187   2.957   1.249   3.728 -2.5693 -1.3981  0.1892
    9CLSA   O44  188   2.866   1.267   3.904  0.1764  0.7529 -0.2780
    9CLSA   H91  189   2.854   1.339   3.968 -0.8526 -1.2180  1.8768
    9CLSA   O45  190   3.289   1.439   4.084  0.0310  0.2878 -0.8061
   10CLSB   C55  191   3.232   1.407   4.215  0.5172  0.3510 -0.6816
   10CLSB   C56  192   3.176   1.216   4.369 -0.8093 -0.8158 -0.2117
   10CLSB   C57  193   3.202   1.257   4.218  0.2568 -0.0219 -0.6953
   10CLSB   C58  194   3.344   1.448   4.317 -0.1090  0.0446 -0.8160
   10CLSB   C59  195   3.291   1.268   4.468  0.2614 -0.8185 -0.0055
   10CLSB   H92  196   3.109   1.243   4.162 -1.0407  1.1765  1.0479
   10CLSB   H93  197   3.087   1.267   4.406  0.3981  0.7775  0.5926
   10CLSB   H94  198   3.438   1.397   4.292 -1.1225 -1.3355 -2.0011
   10CLSB   H95  199   3.390   1.227   4.445  1.1663  2.2246 -2.2029
   10CLSB   H96  200   3.145   1.466   4.246  0.7413 -0.0432  0.7653
   10CLSB   O46  201   3.300   1.410   4.445  0.0995 -0.2732  0.5565
   10CLSB   C60  202   3.374   1.599   4.324 -0.4302 -0.1330 -0.6480
   10CLSB   H97  203   3.415   1.642   4.232 -0.5129 -0.3121 -0.7678
   10CLSB   H98  204   3.283   1.657   4.343  0.3188  1.2603 -1.1793
   10CLSB   O47  205   3.467   1.620   4.435  0.3400  0.2305  0.4536
   10CLSB   H99  206   3.416   1.584   4.510  2.1335 -1.8777  0.7617
   10CLSB   O48  207   3.160   1.075   4.375  0.1704  0.3060  0.1343
   10CLSB  H100  208   3.194   1.035   4.292  1.1686  0.0935  0.6229
   10CLSB   O49  209   3.306   1.179   4.151 -0.4844 -0.3888  0.0332
   10CLSB  H101  210   3.337   1.228   4.072  2.4821 -1.0424  0.6754
   10CLSB   O50  211   3.243   1.244   4.597  0.2992 -0.2611 -0.1659
   10CLSB  H102  212   3.179   1.171   4.588  0.4004 -0.2165 -1.4038
   11SOL     OW  213   3.015   0.745   2.465  0.2728 -0.3967  0.0451
   11SOL    HW1  214   2.933   0.800   2.450  0.2455 -0.7138 -1.0977
   11SOL    HW2  215   3.023   0.678   2.391  0.6762 -1.4737  1.0381
   12SOL     OW  216   3.006   1.244   0.883  0.1691  0.0835  0.3805
   12SOL    HW1  217   3.061   1.290   0.953  0.6366 -0.3962  0.3366
   12SOL    HW2  218   3.060   1.233   0.800 -0.3335  0.5058 -0.0126
   13SOL     OW  219   1.667   4.275   2.451  0.2637 -0.0412 -0.4074
   13SOL    HW1  220   1.703   4.292   2.359  0.3202 -0.8343 -0.5377
   13SOL    HW2  221   1.644   4.178   2.460 -1.0618  0.2885 -0.0481
   14SOL     OW  222   2.926   3.790   1.157 -0.0263  0.3298  0.2787
   14SOL    HW1  223   2.981   3.708   1.174  0.5732  0.3981 -1.1661
   14SOL    HW2  224   2.927   3.848   1.238  0.6761 -0.4420  0.8428
   15SOL     OW  225   2.467   0.212   0.854 -0.4866 -0.4184 -0.0083
   15SOL    HW1  226   2.376   0.245   0.827 -0.6417 -1.3991 -0.7527
   15SOL    HW2  227   2.477   0.117   0.824  0.8876 -0.2433 -0.1354
   16SOL     OW  228   3.460   3.848   3.956 -0.3154  0.0822  0.1562
   16SOL    HW1  229   3.482   3.882   3.865 -2.1447 -0.4805 -0.5525
   16SOL    HW2  230   3.363   3.822   3.959  0.4020 -2.8818  1.3192
   17SOL     OW  231   3.404   2.342   3.306  0.4930  0.8759  0.6469
   17SOL    HW1  232   3.480   2.333   3.371  0.2644 -1.5675  0.6924
   17SOL    HW2  233   3.420   2.280   3.229 -1.7256 -0.1801  0.9629
   18SOL     OW  234   3.073   2.420   3.953  0.8016  0.2428  0.3084
   18SOL    HW1  235   3.037   2.422   3.860 -2.1301 -0.0468  1.3257
   18SOL    HW2  236   3.042   2.502   4.002  2.0582  0.2535  1.1449
   19SOL     OW  237   2.268   3.791   2.453  0.0892 -0.1626  0.4582
   19SOL    HW1  238   2.236   3.852   2.526  0.9851 -0.8630  1.4672
   19SOL    HW2  239   2.230   3.700   2.468 -0.1112 -0.1973 -0.2397
   20SOL     OW  240   1.969   3.302   4.940  0.0843  0.3615  0.1613
   20SOL    HW1  241   2.069   3.310   4.948  0.0578  0.2248  0.6169
   20SOL    HW2  242   1.929   3.393   4.940 -0.0878  0.4205  3.7517
   21SOL     OW  243   3.337   3.428   4.886  0.0766  0.5663 -0.0422
   21SOL    HW1  244   3.244   3.436   4.922  0.3846  1.4464  0.5754
   21SOL    HW2  245   3.377   3.343   4.920 -0.4025  0.3193 -0.0855
   22SOL     OW  246   3.256   3.663   2.728  0.6174  0.7562 -0.0656
   22SOL    HW1  247   3.331   3.704   2.781  0.5661 -0.7071  1.2278
   22SOL    HW2  248   3.169   3.704   2.756  0.9284  3.1330 -2.2337
   23SOL     OW  249   2.417   4.234   4.215  0.0593 -0.2162 -0.0504
   23SOL    HW1  250   2.400   4.289   4.133  0.9437  1.4098  0.8153
   23SOL    HW2  251   2.493   4.274   4.266 -1.1032 -0.6040  2.0863
   24SOL     OW  252   1.972   0.998   2.477 -0.5033 -0.4599 -0.3453
   24SOL    HW1  253   1.881   0.957   2.483 -0.3589 -0.8789 -0.9869
   24SOL    HW2  254   2.002   1.022   2.570 -1.3442 -0.1330 -0.1474
   25SOL     OW  255   1.995   4.048   4.378 -0.1355  1.2506 -0.0342
   25SOL    HW1  256   2.092   4.067   4.385 -0.1090  0.9072  0.5253
   25SOL    HW2  257   1.948   4.131   4.348  0.5556  0.9000 -2.2629
   26SOL     OW  258   3.408   1.147   2.460  0.1351  0.2833 -0.8685
   26SOL    HW1  259   3.490   1.117   2.412 -0.8976  0.6155 -2.9622
   26SOL    HW2  260   3.362   1.066   2.499  0.2634 -0.1747 -1.6550
   27SOL     OW  261   2.353   2.899   2.923  0.4594  0.4541 -0.2277
   27SOL    HW1  262   2.284   2.968   2.945 -0.3129 -0.7659  1.4067
   27SOL    HW2  263   2.357   2.888   2.823 -0.4722  1.7679 -0.4424
   28SOL     OW  264   3.757   3.050   2.169  0.1137  0.5721 -0.6691
   28SOL    HW1  265   3.667   3.047   2.126  0.5380 -0.4333 -1.5248
   28SOL    HW2  266   3.747   3.028   2.266 -0.5915  0.6557 -0.7164
   29SOL     OW  267   3.890   2.363   3.669  0.1263  0.1546 -0.5582
   29SOL    HW1  268   3.811   2.332   3.723 -0.8488  1.2590 -1.3024
   29SOL    HW2  269   3.949   2.285   3.650 -0.5223 -0.6087  0.4427
   30SOL     OW  270   2.898   3.006   3.018  0.1737 -0.4977 -0.2578
   30SOL    HW1  271   2.840   2.984   2.939 -0.2753 -0.2441 -0.0050
   30SOL    HW2  272   2.863   2.958   3.099  0.0540 -0.0100 -0.0136
   31SOL     OW  273   2.064   3.411   2.736  0.0527 -0.3593  0.6694
   31SOL    HW1  274   2.022   3.390   2.648  0.1598 -1.6235  0.9056
   31SOL    HW2  275   2.148   3.359   2.746  0.8572  0.9285  0.8946
   32SOL     OW  276   2.564   0.970   1.917 -0.2450  0.4450  0.6120
   32SOL    HW1  277   2.558   1.009   2.009 -0.4992 -0.1746  0.8604
   32SOL    HW2  278   2.492   1.009   1.859 -0.6306  0.1892  0.9172
   33SOL     OW  279   1.634   0.548   2.066 -0.1380 -0.9106 -0.0026
   33SOL    HW1  280   1.592   0.562   1.977  0.3249 -0.8150 -0.2079
   33SOL    HW2  281   1.657   0.452   2.077  0.3800 -0.8126 -0.2415
   34SOL     OW  282   1.803   2.284   3.730  0.7805  0.0627  0.1665
   34SOL    HW1  283   1.748   2.231   3.666  2.7588 -1.0102 -0.7563
   34SOL    HW2  284   1.812   2.233   3.816 -0.3961  0.6816  0.6818
   35SOL     OW  285   2.151   3.563   2.477  0.3289 -0.1171 -0.3829
   35SOL    HW1  286   2.157   3.473   2.520  0.7018  0.9968  2.0435
   35SOL    HW2  287   2.059   3.599   2.489  0.4202  0.1883 -0.5915
   36SOL     OW  288   2.774   1.569   4.638  0.5312 -0.3480  0.3095
   36SOL    HW1  289   2.720   1.493   4.676  0.3135 -1.1108 -1.4415
   36SOL    HW2  290   2.870   1.544   4.637  0.4878 -0.5076 -0.0311
   37SOL     OW  291   2.337   4.097   1.729  0.4650 -0.0963 -0.1139
   37SOL    HW1  292   2.312   4.193   1.724  2.8808  0.5560 -2.3125
   37SOL    HW2  293   2.363   4.066   1.637  0.8542 -2.5259  0.7520
   38SOL     OW  294   2.421   3.671   1.358 -0.4464  0.2897 -0.0002
   38SOL    HW1  295   2.506   3.723   1.370 -0.1580 -0.1272 -0.2324
   38SOL    HW2  296   2.400   3.664   1.261  1.4232 -3.0307 -0.3123
   39SOL     OW  297   2.361   1.022   2.095 -0.0179 -0.8319 -0.2480
   39SOL    HW1  298   2.278   1.018   2.150  1.3710  0.6100  2.1516
   39SOL    HW2  299   2.386   1.117   2.080  0.7058 -1.2301 -1.7826
   40SOL     OW  300   2.240   2.125   3.159 -0.3481  0.4737  0.3274
   40SOL    HW1  301   2.236   2.167   3.069 -0.2009  0.2747  0.2272
   40SOL    HW2  302   2.221   2.194   3.229 -3.1261  0.1304  0.0443
   41SOL     OW  303   2.743   3.871   2.435  0.5267  0.6921 -0.0565
   41SOL    HW1  304   2.742   3.907   2.528 -0.2077 -2.1856  1.1874
   41SOL    HW2  305   2.814   3.800   2.428 -0.3446 -0.1096 -1.2705
   42SOL     OW  306   1.634   1.422   3.323  0.2639  0.1133 -0.4054
   42SOL    HW1  307   1.725   1.412   3.363  0.2787 -0.2156 -0.5171
   42SOL    HW2  308   1.566   1.396   3.390  0.2850 -0.3506 -0.5596
   43SOL     OW  309   2.755   1.674   3.732 -0.2856 -0.2366  0.2721
   43SOL    HW1  310   2.754   1.617   3.650 -0.6755 -0.0614  0.1523
   43SOL    HW2  311   2.726   1.619   3.810 -0.1075 -0.3521  0.2566
   44SOL     OW  312   1.669   3.066   4.176  0.2524  0.2355  0.2374
   44SOL    HW1  313   1.625   3.127   4.242  0.0100 -0.8207  1.0697
   44SOL    HW2  314   1.755   3.108   4.145  0.7077  0.4487  1.7269
   45SOL     OW  315   2.007   4.336   3.433 -0.0428 -0.0836  0.2571
   45SOL    HW1  316   2.061   4.344   3.517 -1.1221  2.3406  0.8077
   45SOL    HW2  317   2.016   4.421   3.380 -1.2395 -0.6458 -0.8981
   46SOL     OW  318   2.708   0.492   1.840 -0.5005 -0.7465 -0.4203
   46SOL    HW1  319   2.668   0.543   1.915  1.7988 -0.1443  0.4925
   46SOL    HW2  320   2.646   0.493   1.762 -1.6801  1.1228  0.4861
   47SOL     OW  321   2.324   2.461   4.604 -0.0528 -0.3293 -0.2870
   47SOL    HW1  322   2.311   2.560   4.603  2.2748  0.0719  1.5084
   47SOL    HW2  323   2.257   2.420   4.666  0.3620  0.4246  0.7006
   48SOL     OW  324   3.003   2.461   2.010  0.8581  0.0160  0.5409
   48SOL    HW1  325   2.939   2.451   2.086 -0.1794 -1.8260 -0.5069
   48SOL    HW2  326   3.056   2.377   2.000  0.4059 -0.1094 -1.2175
   49SOL     OW  327   2.506   1.008   1.103 -0.0595 -0.3191  0.3324
   49SOL    HW1  328   2.466   0.952   1.175 -0.7960 -0.2672 -0.0262
   49SOL    HW2  329   2.589   0.963   1.068  0.9748  0.2113  1.9809
   50SOL     OW  330   2.692   0.231   2.316 -0.4268 -0.4035  0.7555
   50SOL    HW1  331   2.695   0.215   2.217 -0.9392  2.1086  0.2841
   50SOL    HW2  332   2.684   0.142   2.362  2.2381 -1.8548 -1.2629
   51SOL     OW  333   1.692   4.244   1.746 -0.7856  0.0707  0.0829
   51SOL    HW1  334   1.786   4.267   1.773 -1.0159  1.8906 -0.4916
   51SOL    HW2  335   1.690   4.152   1.707  0.4680 -0.5964  1.4828
   52SOL     OW  336   2.153   1.567   0.590 -0.3029  0.2975  0.1916
   52SOL    HW1  337   2.242   1.592   0.550 -0.9245  2.3248 -0.0496
   52SOL    HW2  338   2.104   1.507   0.527  0.6943 -0.4652  0.1207
   53SOL     OW  339   1.578   2.153   0.551 -0.0025  0.0227 -0.4332
   53SOL    HW1  340   1.569   2.084   0.480  0.0063  0.5875 -0.9920
   53SOL    HW2  341   1.673   2.159   0.581  0.1922  0.5013 -1.1175
   54SOL     OW  342   2.422   1.101   0.225  0.3884  0.0964 -0.5151
   54SOL    HW1  343   2.349   1.116   0.293  0.2778  1.7872 -0.9583
   54SOL    HW2  344   2.487   1.034   0.261 -2.1166 -2.6480 -0.7215
   55SOL     OW  345   1.289   1.202   1.650  0.6534  0.8176  0.1767
   55SOL    HW1  346   1.324   1.221   1.741 -0.0476  2.5285  0.1075
   55SOL    HW2  347   1.189   1.199   1.652  0.6564 -0.5737 -0.2898
   56SOL     OW  348   1.196   2.969   2.106  0.0388  0.3288  0.0475
   56SOL    HW1  349   1.229   2.984   2.012 -1.0353  0.3154 -0.3464
   56SOL    HW2  350   1.148   3.051   2.137  0.7628  0.4978  0.7703
   57SOL     OW  351   2.715   1.175   3.557  0.3730 -0.4020  0.5376
   57SOL    HW1  352   2.776   1.150   3.482 -0.2294  1.3722 -0.6196
   57SOL    HW2  353   2.621   1.149   3.533  0.1543  0.3230  0.5635
   58SOL     OW  354   2.872   2.159   4.475 -0.0036 -0.2229  0.1655
   58SOL    HW1  355   2.844   2.217   4.553  0.9112 -0.2400  0.5164
   58SOL    HW2  356   2.799   2.095   4.455 -0.8012  0.6618  0.1550
   59SOL     OW  357   1.996   3.760   1.635 -0.5446  0.1594 -0.1523
   59SOL    HW1  358   1.932   3.742   1.709 -1.0557 -0.1295 -0.6578
   59SOL    HW2  359   2.089   3.758   1.671 -0.7238 -1.0192  0.2965
   60SOL     OW  360   2.081   3.709   0.965  0.3382 -0.5096  0.1533
   60SOL    HW1  361   2.075   3.775   0.891  0.6076 -0.2066  0.4001
   60SOL    HW2  362   2.069   3.617   0.928  1.4654 -0.4424 -0.4179
   61SOL     OW  363   2.065   3.411   0.920 -0.0223 -0.0189  0.7912
   61SOL    HW1  364   2.061   3.350   0.841 -0.2321  1.3635 -0.3051
   61SOL    HW2  365   2.158   3.412   0.957  0.3332  0.0977 -0.0863
   62SOL     OW  366   2.856   4.739   0.875  0.2043  0.1126 -0.0366
   62SOL    HW1  367   2.786   4.674   0.904 -0.7152  0.7986 -0.6456
   62SOL    HW2  368   2.895   4.710   0.788  0.1669  0.1133 -0.0534
   63SOL     OW  369   2.709   3.411   1.308 -0.1932 -0.3033  0.9817
   63SOL    HW1  370   2.748   3.466   1.381 -1.3556  0.4520  1.0529
   63SOL    HW2  371   2.609   3.413   1.314 -0.3949  1.0157 -1.4810
   64SOL     OW  372   2.211   2.768   2.540  0.2450 -0.1441 -0.1009
   64SOL    HW1  373   2.274   2.823   2.596  1.3272  0.4593 -1.8030
   64SOL    HW2  374   2.117   2.794   2.561  0.7070  2.2156 -0.5996
   65SOL     OW  375   2.936   3.963   1.360  0.2133  0.1917 -0.8108
   65SOL    HW1  376   2.896   4.004   1.442 -0.0513 -1.3103 -0.1447
   65SOL    HW2  377   3.034   3.981   1.358  0.7860 -2.1520  1.4308
   66SOL     OW  378   3.007   3.934   1.936  0.6390  0.0573  0.1674
   66SOL    HW1  379   3.024   4.023   1.978 -1.6452  1.3972 -1.4831
   66SOL    HW2  380   3.028   3.940   1.838 -1.2511 -0.5890 -0.3328
   67SOL     OW  381   2.993   1.192   1.528  0.8013  0.2077 -0.1222
   67SOL    HW1  382   2.957   1.269   1.581 -0.5067 -1.6723  1.8996
   67SOL    HW2  383   2.935   1.178   1.447  1.4182  1.6554 -0.8592
   68SOL     OW  384   3.440   4.805   1.835  0.1097 -0.1649 -0.3612
   68SOL    HW1  385   3.452   4.813   1.934 -0.6010  0.8394 -0.3411
   68SOL    HW2  386   3.383   4.880   1.803  0.4997 -0.3681 -1.5720
   69SOL     OW  387   1.774   0.471   1.416 -0.5454  0.0300  0.5101
   69SOL    HW1  388   1.801   0.379   1.446 -0.0315 -0.0926 -0.3088
   69SOL    HW2  389   1.855   0.521   1.386 -1.1870 -0.4001 -2.1620
   70SOL     OW  390   2.632   1.773   2.234  0.1868 -0.0390  0.8947
   70SOL    HW1  391   2.540   1.793   2.201  0.1326  2.1762  2.1607
   70SOL    HW2  392   2.689   1.742   2.158 -0.8078  1.4968 -0.5288
   71SOL     OW  393   3.510   3.029   2.054 -0.2751 -0.2166 -0.4731
   71SOL    HW1  394   3.522   2.957   1.986  0.2321 -0.4231 -0.1733
   71SOL    HW2  395   3.475   3.111   2.009 -0.9303 -0.6704 -0.8035
   72SOL     OW  396   2.811   4.176   3.732 -0.3291  0.3690  0.5386
   72SOL    HW1  397   2.776   4.084   3.714  0.6310  0.6054 -3.6135
   72SOL    HW2  398   2.747   4.244   3.696  1.0217  1.0685 -0.6823
   73SOL     OW  399   1.923   0.137   2.922  1.3404 -0.1626 -0.3288
   73SOL    HW1  400   1.975   0.057   2.893  0.5551 -0.4670 -0.9195
   73SOL    HW2  401   1.843   0.107   2.975  1.1294  0.2375 -0.4146
   74SOL     OW  402   2.296   4.979   3.287  0.3598 -0.4777 -0.1379
   74SOL    HW1  403   2.321   5.039   3.211  2.1659 -0.5468  0.3506
   74SOL    HW2  404   2.364   4.988   3.360 -1.1239 -0.6947  1.3327
   75SOL     OW  405   3.345   2.546   3.792  0.2664 -0.3778  0.4487
   75SOL    HW1  406   3.435   2.577   3.760  0.7361 -0.5089  1.5729
   75SOL    HW2  407   3.287   2.625   3.809 -0.2103 -0.3241 -1.2660
   76SOL     OW  408   2.268   3.706   3.489 -0.4765 -0.1822  0.4601
   76SOL    HW1  409   2.322   3.679   3.568 -1.5110  1.3386  1.7300
   76SOL    HW2  410   2.230   3.624   3.446  0.9475 -1.1059  0.8718
   77SOL     OW  411   1.549   4.000   0.576  0.1962 -0.3911 -0.6661
   77SOL    HW1  412   1.645   4.027   0.566  0.6731 -0.8937  1.8021
   77SOL    HW2  413   1.493   4.082   0.590  0.5388 -0.1888 -0.4552
   78SOL     OW  414   1.624   0.599   1.784 -0.4996  0.6865  0.4221
   78SOL    HW1  415   1.605   0.694   1.805 -1.6633  0.3762  0.8393
   78SOL    HW2  416   1.615   0.585   1.685 -1.5795  0.7451  0.5070
   79SOL     OW  417   2.784   0.799   2.973  0.2454 -0.3566 -0.4389
   79SOL    HW1  418   2.799   0.702   2.959  0.0753 -0.7599  1.8639
   79SOL    HW2  419   2.771   0.843   2.884  0.6888 -2.3478 -1.5471
   80SOL     OW  420   1.670   2.599   1.789 -0.5338 -0.2580 -0.1864
   80SOL    HW1  421   1.680   2.520   1.729  0.0432  0.6847 -1.3576
   80SOL    HW2  422   1.573   2.612   1.809 -0.7951 -0.2342 -1.4048
   81SOL     OW  423   2.895   1.940   0.462  0.0054  0.2037 -0.4925
   81SOL    HW1  424   2.839   1.985   0.532  2.1419  2.5915 -0.1766
   81SOL    HW2  425   2.867   1.844   0.455 -2.8730  0.8273  0.8444
   82SOL     OW  426   2.499   4.392   0.266 -0.6767  0.8512  0.2279
   82SOL    HW1  427   2.428   4.441   0.319 -1.6663  0.7804 -0.9948
   82SOL    HW2  428   2.455   4.323   0.208  0.6867 -1.7330  2.0558
   83SOL     OW  429   2.457   4.825   2.215  0.2344 -0.1985  0.6367
   83SOL    HW1  430   2.362   4.856   2.210  0.1910 -0.1437  1.5876
   83SOL    HW2  431   2.512   4.877   2.150 -0.3245  0.0354  0.3476
   84SOL     OW  432   2.050   2.971   4.543 -0.3099  0.0941 -0.7478
   84SOL    HW1  433   1.956   2.975   4.511 -1.2697 -1.8853  1.5194
   84SOL    HW2  434   2.057   3.019   4.631  0.4474 -0.9360 -0.2280
   85SOL     OW  435   2.413   4.412   0.912 -0.6952  0.5698 -0.2091
   85SOL    HW1  436   2.347   4.407   0.837 -1.2471  0.1804  0.2931
   85SOL    HW2  437   2.495   4.361   0.887 -1.9509 -1.9505  0.5034
   86SOL     OW  438   2.329   3.364   1.026 -0.8677  0.2240  0.3084
   86SOL    HW1  439   2.379   3.359   0.939  1.6118 -0.3011  1.6664
   86SOL    HW2  440   2.333   3.275   1.071 -0.3591  0.9878  1.8457
   87SOL     OW  441   1.779   4.302   2.779 -0.4034  0.1107  0.2335
   87SOL    HW1  442   1.872   4.265   2.772 -0.5384 -0.1535 -0.2064
   87SOL    HW2  443   1.751   4.339   2.690 -1.0360 -0.5861  0.1289
   88SOL     OW  444   2.504   1.636   1.857 -0.0404  0.1735 -0.7551
   88SOL    HW1  445   2.432   1.574   1.826 -0.2319 -0.2425  0.4767
   88SOL    HW2  446   2.465   1.726   1.874 -0.4854 -0.2841  0.7862
   89SOL     OW  447   2.450   1.779   1.010  0.0370 -0.0675 -0.0894
   89SOL    HW1  448   2.396   1.697   1.030  0.3141  0.1008  1.4407
   89SOL    HW2  449   2.390   1.859   1.011  0.4328  0.3033  2.9890
   90SOL     OW  450   3.032   2.605   3.584  0.1313  0.6950 -0.0189
   90SOL    HW1  451   3.096   2.533   3.612 -0.8874 -0.1746  0.1497
   90SOL    HW2  452   3.065   2.646   3.499  0.1344 -0.8156 -0.7867
   91SOL     OW  453   1.807   4.839   1.506  0.7733 -0.7064 -0.0373
   91SOL    HW1  454   1.824   4.919   1.448  1.6812 -1.3961 -0.7547
   91SOL    HW2  455   1.828   4.756   1.454 -0.5628 -1.4460  0.5496
   92SOL     OW  456   1.748   0.371   2.289  0.3690  0.2449 -0.2839
   92SOL    HW1  457   1.791   0.296   2.339  1.5434  1.2053  0.2138
   92SOL    HW2  458   1.708   0.336   2.204 -1.0223 -1.2926  0.9403
   93SOL     OW  459   2.787   3.734   2.698  0.1118  0.7879  0.4075
   93SOL    HW1  460   2.742   3.755   2.786 -0.2768 -1.6080  0.8552
   93SOL    HW2  461   2.717   3.712   2.630  0.4742  0.7867  0.0316
   94SOL     OW  462   2.209   1.192   0.456  0.2880 -0.1839 -0.2761
   94SOL    HW1  463   2.147   1.157   0.526 -0.6614  0.4215 -0.7922
   94SOL    HW2  464   2.304   1.183   0.488 -0.1235  0.0255  1.0546
   95SOL     OW  465   1.300   3.296   1.750  0.5476 -0.5514  0.2681
   95SOL    HW1  466   1.358   3.355   1.807 -1.4975  2.0497 -0.1548
   95SOL    HW2  467   1.328   3.306   1.654  1.1183 -1.4490  0.3292
   96SOL     OW  468   2.768   2.828   3.207 -0.4084 -0.3616 -0.4113
   96SOL    HW1  469   2.790   2.747   3.261 -0.7568  1.1821  2.1974
   96SOL    HW2  470   2.674   2.821   3.174 -0.6654 -0.7337  0.3732
   97SOL     OW  471   2.445   1.960   3.186  0.8267 -0.4167 -0.0482
   97SOL    HW1  472   2.395   2.046   3.196  0.8351 -0.6463  2.7504
   97SOL    HW2  473   2.398   1.902   3.119 -3.3389 -0.9535  2.9717
   98SOL     OW  474   2.067   3.552   0.304 -0.0999 -0.0140  0.2396
   98SOL    HW1  475   1.990   3.493   0.284 -0.2440 -0.1412  1.1377
   98SOL    HW2  476   2.050   3.643   0.265 -0.5047 -0.1637  0.0668
   99SOL     OW  477   2.158   1.487   2.205  0.0074 -0.4460  0.5604
   99SOL    HW1  478   2.222   1.547   2.254  0.2685 -0.9995  0.9054
   99SOL    HW2  479   2.079   1.468   2.264 -0.6792  0.5490 -0.0060
  100SOL     OW  480   2.019   4.101   2.808 -0.1794 -0.4059 -0.2236
  100SOL    HW1  481   2.081   4.162   2.858 -0.2920  0.4724 -1.1119
  100SOL    HW2  482   2.072   4.043   2.746 -0.0598 -1.3333  0.7230
  101SOL     OW  483   1.948   3.673   3.493 -0.1867 -0.6786  0.0302
  101SOL    HW1  484   1.990   3.760   3.516  0.1454 -0.6641 -0.6138
  101SOL    HW2  485   2.016   3.612   3.453 -0.5726 -0.9694 -0.2031
  102SOL     OW  486   1.643   3.405   2.314  0.0430  0.1737  0.4143
  102SOL    HW1  487   1.606   3.313   2.325  1.6516 -0.3055  2.5088
  102SOL    HW2  488   1.684   3.435   2.400  0.9765  2.2236 -0.6531
  103SOL     OW  489   1.746   2.309   2.669 -0.3855 -0.4273  0.3038
  103SOL    HW1  490   1.838   2.272   2.662 -0.6777 -1.6641  2.2479
  103SOL    HW2  491   1.740   2.369   2.749 -1.3758 -0.7258  0.4717
  104SOL     OW  492   3.596   2.657   1.707 -0.5021  0.1902  0.4436
  104SOL    HW1  493   3.560   2.619   1.622 -0.8326  0.5580  0.4167
  104SOL    HW2  494   3.664   2.594   1.745 -0.7668 -0.2433  0.2047
  105SOL     OW  495   2.089   2.447   2.755  0.3591 -0.6533 -0.1105
  105SOL    HW1  496   2.002   2.448   2.804  0.3985 -0.2307 -0.0447
  105SOL    HW2  497   2.078   2.493   2.667  0.4607 -0.7965 -0.1985
  106SOL     OW  498   3.348   0.232   2.880  0.4313 -0.7836  0.0484
  106SOL    HW1  499   3.384   0.186   2.962 -0.8048 -0.9003  0.5475
  106SOL    HW2  500   3.254   0.202   2.864 -0.4705  1.6091  0.4304
  107SOL     OW  501   1.795   3.131   2.978  0.6513 -0.1678  0.0177
  107SOL    HW1  502   1.753   3.050   3.020 -0.3200  1.2799  2.0435
  107SOL    HW2  503   1.854   3.175   3.045 -0.8708  2.2045 -0.0696
  108SOL     OW  504   1.703   1.665   3.183 -0.1161 -0.8798 -0.1096
  108SOL    HW1  505   1.800   1.638   3.180  0.1454  0.0813 -0.8754
  108SOL    HW2  506   1.648   1.586   3.210  0.8579 -1.4932  0.1612
  109SOL     OW  507   2.089   3.881   1.166  0.2325 -0.0193  0.5034
  109SOL    HW1  508   2.084   3.809   1.097  0.4508  1.2706 -0.9177
  109SOL    HW2  509   2.092   3.840   1.257 -0.5986 -1.7566 -0.2184
  110SOL     OW  510   2.934   3.052   0.542 -0.2268 -0.3465  0.6892
  110SOL    HW1  511   2.964   2.971   0.492 -1.7851 -0.4263 -0.1801
  110SOL    HW2  512   2.928   3.030   0.640  1.2041 -0.6817  0.7272
  111SOL     OW  513   1.810   0.881   1.223 -0.2115  0.0711 -0.6744
  111SOL    HW1  514   1.866   0.831   1.156 -0.4123 -0.8599 -0.1665
  111SOL    HW2  515   1.871   0.928   1.287 -0.0083 -0.1452 -0.7044
  112SOL     OW  516   2.977   4.985   1.550  0.2138 -0.4136  0.1624
  112SOL    HW1  517   3.030   5.068   1.567 -0.5307  0.4520 -1.5002
  112SOL    HW2  518   2.887   4.994   1.592 -0.1379 -0.0287 -0.6442
  113SOL     OW  519   3.110   0.397   1.708 -0.0866  0.2925 -0.0590
  113SOL    HW1  520   3.142   0.326   1.646 -0.1732 -0.2541  0.5184
  113SOL    HW2  521   3.189   0.442   1.750  0.0137  1.3663 -1.3170
  114SOL     OW  522   3.473   4.940   2.409  0.4864  0.0095 -0.2108
  114SOL    HW1  523   3.516   5.019   2.365  1.9053 -0.3359  0.5161
  114SOL    HW2  524   3.528   4.911   2.487 -0.3445 -1.3347 -0.0853
  115SOL     OW  525   3.293   2.661   2.943 -0.2849 -0.5118 -0.1614
  115SOL    HW1  526   3.227   2.615   3.003 -0.3783 -0.1687  0.0007
  115SOL    HW2  527   3.280   2.759   2.950  1.0039 -0.3814  0.7537
  116SOL     OW  528   2.867   1.628   1.430 -0.2177  0.1431 -0.2296
  116SOL    HW1  529   2.792   1.683   1.466 -2.6786 -2.3381 -1.2520
  116SOL    HW2  530   2.838   1.532   1.422  2.0503 -0.4605 -3.4264
  117SOL     OW  531   2.286   1.351   4.150  0.3500  0.4523 -0.1280
  117SOL    HW1  532   2.280   1.428   4.086  0.1896 -0.1867 -0.9037
  117SOL    HW2  533   2.193   1.317   4.169  0.3530  0.9409  0.8437
  118SOL     OW  534   2.456   3.531   3.277  0.2711 -0.0811 -0.0751
  118SOL    HW1  535   2.519   3.478   3.220  0.3904  1.3359 -1.3365
  118SOL    HW2  536   2.367   3.536   3.231 -0.2484 -0.6119  0.8546
  119SOL     OW  537   2.786   4.554   2.421 -0.5740 -0.2821  0.4859
  119SOL    HW1  538   2.711   4.542   2.485  0.2158  1.1098  1.7328
  119SOL    HW2  539   2.872   4.564   2.472  0.2692 -0.4235 -0.8446
  120SOL     OW  540   1.327   2.910   2.347 -0.1773  0.0659 -0.0600
  120SOL    HW1  541   1.346   2.813   2.358  1.8796  0.3040 -1.0610
  120SOL    HW2  542   1.288   2.926   2.256 -0.6301  0.1585  0.1501
  121SOL     OW  543   2.766   4.194   2.905 -0.6729 -0.5676 -0.4362
  121SOL    HW1  544   2.807   4.270   2.955 -0.5977 -1.0436  0.2413
  121SOL    HW2  545   2.784   4.109   2.954 -0.5695 -1.0581 -1.2930
  122SOL     OW  546   1.621   4.739   1.684 -0.3077  0.1677  0.9365
  122SOL    HW1  547   1.632   4.779   1.775  0.5035  0.4977  0.6975
  122SOL    HW2  548   1.661   4.800   1.616 -2.3118  0.7035  0.1560
  123SOL     OW  549   2.393   0.658   2.642  0.1774  0.0168  0.5891
  123SOL    HW1  550   2.346   0.648   2.554  0.0224 -0.3363  0.7084
  123SOL    HW2  551   2.334   0.623   2.715  0.1594  0.6427  0.8784
  124SOL     OW  552   1.642   3.134   0.399  0.6567  0.2337  0.0214
  124SOL    HW1  553   1.676   3.049   0.439 -1.2881 -0.7418 -0.2458
  124SOL    HW2  554   1.689   3.151   0.313  3.0860  1.0019  1.4198
  125SOL     OW  555   2.923   3.382   2.045 -0.1401  0.7071  0.1350
  125SOL    HW1  556   2.830   3.386   2.007  0.1117  2.4417 -0.4081
  125SOL    HW2  557   2.988   3.398   1.971  0.5503  0.5091  0.6952
  126SOL     OW  558   3.755   3.080   3.371  0.6821  0.3242  0.7074
  126SOL    HW1  559   3.675   3.025   3.346  1.6838 -0.1671 -1.6572
  126SOL    HW2  560   3.807   3.032   3.442  1.0807 -1.4511 -0.6965
  127SOL     OW  561   2.743   0.485   2.591 -0.1186  0.3044  0.1137
  127SOL    HW1  562   2.814   0.446   2.533 -0.0767  1.8067 -0.9036
  127SOL    HW2  563   2.665   0.423   2.595  0.9730 -1.0745  0.7304
  128SOL     OW  564   2.725   1.664   1.998 -0.2896 -0.3728 -0.1448
  128SOL    HW1  565   2.771   1.734   1.943  0.6085 -0.5627  0.3361
  128SOL    HW2  566   2.629   1.658   1.970  0.0926 -0.3291 -1.5380
  129SOL     OW  567   2.664   2.621   1.132  0.5743  0.5675  0.5564
  129SOL    HW1  568   2.632   2.709   1.165  2.8363  1.8606 -0.4478
  129SOL    HW2  569   2.715   2.575   1.205 -0.0840  0.3553  0.8888
  130SOL     OW  570   3.512   3.588   3.837 -0.1424 -0.1218 -0.3265
  130SOL    HW1  571   3.487   3.669   3.890 -0.9327  0.3428 -1.3592
  130SOL    HW2  572   3.598   3.605   3.789  0.9327 -0.7985  1.3074
  131SOL     OW  573   3.069   2.921   4.450  0.3463  0.2473  0.5521
  131SOL    HW1  574   3.058   3.014   4.484  0.0327  0.6262 -0.5555
  131SOL    HW2  575   3.160   2.911   4.409 -0.5345  0.8751 -1.6907
  132SOL     OW  576   3.678   1.966   3.613  0.0454 -0.1595 -0.2473
  132SOL    HW1  577   3.687   1.886   3.672  0.0652 -0.6518 -0.8998
  132SOL    HW2  578   3.640   1.937   3.525  0.5935  0.4570 -0.6944
  133SOL     OW  579   1.794   3.890   4.256 -0.0935 -0.6154  0.5185
  133SOL    HW1  580   1.828   3.861   4.167  0.3250  1.4504 -0.0226
  133SOL    HW2  581   1.867   3.936   4.306 -1.3207  1.5555  0.4066
  134SOL     OW  582   2.633   4.334   1.812 -0.4890 -0.3962  0.4954
  134SOL    HW1  583   2.609   4.277   1.890 -1.0449  0.6425  1.1044
  134SOL    HW2  584   2.558   4.332   1.746 -0.4479 -0.4748  0.4507
  135SOL     OW  585   2.931   0.227   3.018 -0.2065  0.3367 -0.2909
  135SOL    HW1  586   2.844   0.275   3.026 -0.2106  0.3884 -0.6360
  135SOL    HW2  587   3.001   0.276   3.071 -0.0543  1.1064 -1.1722
  136SOL     OW  588   1.784   3.813   4.775  0.2352 -0.1317  0.1323
  136SOL    HW1  589   1.725   3.780   4.849  0.1846  0.2928  0.2830
  136SOL    HW2  590   1.858   3.868   4.814  1.0585 -1.1124 -0.0062
  137SOL     OW  591   2.067   1.517   4.889 -0.1720  0.1904 -0.0796
  137SOL    HW1  592   2.155   1.563   4.902  1.1206 -1.7992 -1.2194
  137SOL    HW2  593   2.028   1.495   4.979  1.7577 -1.1097  0.5094
  138SOL     OW  594   2.545   3.359   4.108 -0.1994  0.3474 -0.5107
  138SOL    HW1  595   2.592   3.318   4.030  0.6336 -1.3000  0.7868
  138SOL    HW2  596   2.562   3.458   4.109 -1.5365  0.6839 -3.2408
  139SOL     OW  597   3.247   1.031   3.783  0.3690  0.3388  0.2127
  139SOL    HW1  598   3.151   1.022   3.810 -0.2875  1.9582 -1.3935
  139SOL    HW2  599   3.255   1.019   3.684  1.6682  1.2478  0.1761
  140SOL     OW  600   3.145   4.059   0.379  0.5225  0.0492  0.3354
  140SOL    HW1  601   3.113   4.022   0.292 -1.1822  0.1638  0.8679
  140SOL    HW2  602   3.198   3.989   0.427  0.0787 -0.5932 -0.0898
  141SOL     OW  603   1.871   3.418   1.577  0.7620 -0.4614 -0.1609
  141SOL    HW1  604   1.944   3.467   1.623 -0.3643  1.3956 -0.2494
  141SOL    HW2  605   1.904   3.328   1.548  2.9473  0.2944 -0.1344
  142SOL     OW  606   1.831   2.414   2.045 -0.0305 -0.3392  0.0503
  142SOL    HW1  607   1.757   2.470   2.082  1.2565  0.8018  1.0019
  142SOL    HW2  608   1.884   2.469   1.981  0.6044 -0.8218  0.1584
  143SOL     OW  609   2.591   4.822   3.489  0.0349  0.6434 -0.0022
  143SOL    HW1  610   2.623   4.841   3.396  0.0735  2.0631  0.2807
  143SOL    HW2  611   2.664   4.778   3.541  0.6908  1.5837 -0.0990
  144SOL     OW  612   2.424   4.384   3.980 -0.5529  0.5468  0.0961
  144SOL    HW1  613   2.467   4.429   3.901  1.3819 -2.1750 -0.5659
  144SOL    HW2  614   2.343   4.334   3.949  0.3500 -0.7294 -0.2874
  145SOL     OW  615   1.836   1.705   0.161 -0.4543  0.4241 -0.0251
  145SOL    HW1  616   1.914   1.644   0.178  0.6119  1.6915 -0.1264
  145SOL    HW2  617   1.783   1.714   0.245 -1.6048 -1.8913 -0.4398
  146SOL     OW  618   1.722   0.805   1.974 -0.5094 -0.1649  0.3166
  146SOL    HW1  619   1.791   0.826   2.043  0.9319  0.0233 -1.1427
  146SOL    HW2  620   1.709   0.706   1.970 -0.1765 -0.2156  0.4547
  147SOL     OW  621   2.465   1.071   3.511  0.0200  0.1235 -0.2299
  147SOL    HW1  622   2.433   1.161   3.482 -0.8039  0.7684  2.4277
  147SOL    HW2  623   2.391   1.005   3.503 -1.3743  1.0326  3.3160
  148SOL     OW  624   2.475   3.760   0.655  0.1489  0.0512  0.3978
  148SOL    HW1  625   2.432   3.677   0.691 -1.1192  0.4640 -0.0949
  148SOL    HW2  626   2.431   3.840   0.697  1.4755  0.4860  0.9963
  149SOL     OW  627   2.685   0.337   2.954 -0.5573  0.3950  0.2344
  149SOL    HW1  628   2.735   0.411   2.911 -1.5156  0.3675 -0.9733
  149SOL    HW2  629   2.629   0.290   2.886 -0.2711 -1.2059  1.0407
  150SOL     OW  630   2.102   0.462   0.663  0.6028 -0.7428 -0.3937
  150SOL    HW1  631   2.124   0.461   0.566 -0.2475  1.0799 -0.6592
  150SOL    HW2  632   2.176   0.507   0.714  0.1294  0.1998 -0.5101
  151SOL     OW  633   3.018   2.624   1.592 -0.4814  0.7368 -0.3908
  151SOL    HW1  634   2.967   2.689   1.536 -1.3052 -0.2084 -0.7692
  151SOL    HW2  635   3.038   2.542   1.538  1.2877  0.9970 -0.1818
  152SOL     OW  636   1.573   3.994   2.552  0.1765  0.4369 -0.1421
  152SOL    HW1  637   1.600   4.018   2.645 -1.6695  0.8204  0.3327
  152SOL    HW2  638   1.551   3.897   2.548 -0.5848  0.5915  0.0629
  153SOL     OW  639   2.141   2.344   1.908  0.2373  0.1608 -0.1152
  153SOL    HW1  640   2.078   2.412   1.871 -0.6633 -0.1930  0.7116
  153SOL    HW2  641   2.207   2.389   1.968  0.6033  0.4960 -0.7596
  154SOL     OW  642   2.860   1.125   2.579 -0.6763  0.2487  0.1113
  154SOL    HW1  643   2.942   1.180   2.596 -2.4720  2.9698  0.5601
  154SOL    HW2  644   2.828   1.143   2.486 -0.4894 -1.2878 -0.2831
  155SOL     OW  645   3.246   2.843   1.975 -0.5291 -0.4264 -0.0140
  155SOL    HW1  646   3.269   2.923   2.031  1.2457 -0.3275 -0.8249
  155SOL    HW2  647   3.199   2.776   2.032  2.2293 -0.8326  1.9696
  156SOL     OW  648   2.441   1.303   0.050 -0.0746 -0.1117 -0.5690
  156SOL    HW1  649   2.533   1.342   0.051  0.2116 -0.7684 -0.4911
  156SOL    HW2  650   2.435   1.230   0.118 -1.0390  0.7616  0.3170
  157SOL     OW  651   2.791   3.584   1.516 -0.2279 -0.4681 -0.2741
  157SOL    HW1  652   2.865   3.643   1.483  0.0018 -0.4263  0.2939
  157SOL    HW2  653   2.773   3.606   1.612 -0.9024 -0.5578 -0.3796
  158SOL     OW  654   2.110   4.281   0.347 -0.0644 -0.7880  0.2002
  158SOL    HW1  655   2.169   4.200   0.359 -1.3433 -2.1589 -2.1160
  158SOL    HW2  656   2.042   4.262   0.276 -1.9248  1.5261  1.2297
  159SOL     OW  657   3.749   2.537   2.554  0.7277  0.4085 -0.3949
  159SOL    HW1  658   3.843   2.508   2.538  0.9126  0.5985  0.3161
  159SOL    HW2  659   3.687   2.471   2.512  1.1371 -1.0291  1.1488
  160SOL     OW  660   3.365   0.855   2.956 -0.0188 -0.1764 -0.0911
  160SOL    HW1  661   3.414   0.867   2.870 -1.6267 -1.5419 -1.2614
  160SOL    HW2  662   3.423   0.806   3.020  0.0722 -2.1674 -1.5926
  161SOL     OW  663   2.790   3.555   0.288 -0.4001  0.6283 -0.4178
  161SOL    HW1  664   2.765   3.500   0.367  0.7407 -2.4321 -2.0306
  161SOL    HW2  665   2.711   3.563   0.227 -0.3559  0.0790 -0.5485
  162SOL     OW  666   1.792   4.336   2.228  0.2298  0.2921 -0.0965
  162SOL    HW1  667   1.740   4.293   2.153  0.2185  0.3481 -0.1213
  162SOL    HW2  668   1.887   4.347   2.199  0.0272  1.1965 -0.4797
  163SOL     OW  669   2.261   0.574   3.382  0.4424  0.1554  0.0178
  163SOL    HW1  670   2.191   0.645   3.392  0.3038  0.2100 -1.1205
  163SOL    HW2  671   2.294   0.546   3.472 -0.1808  0.9903  0.5149
  164SOL     OW  672   3.404   1.286   3.590 -0.0870  0.1003  0.1645
  164SOL    HW1  673   3.446   1.376   3.575  1.7511 -0.8866 -1.1152
  164SOL    HW2  674   3.446   1.243   3.670  0.5850 -0.4431 -0.4645
  165SOL     OW  675   1.406   3.917   2.887 -0.3649 -0.5505 -0.0243
  165SOL    HW1  676   1.484   3.958   2.838 -2.0765 -0.6572 -3.0866
  165SOL    HW2  677   1.375   3.980   2.958  0.0263  1.3655 -1.4660
  166SOL     OW  678   2.813   3.142   2.292 -0.7674 -0.0495  0.4615
  166SOL    HW1  679   2.841   3.238   2.297  2.2278 -0.7941 -0.0106
  166SOL    HW2  680   2.786   3.111   2.383 -0.6693  0.9484  0.8405
  167SOL     OW  681   2.567   2.772   3.012  0.1063  0.1036 -0.2489
  167SOL    HW1  682   2.482   2.821   2.994 -0.3434  1.3956  4.2098
  167SOL    HW2  683   2.546   2.674   3.021 -0.1657 -0.1196 -2.6806
  168SOL     OW  684   1.417   1.607   2.028  0.0812 -0.6529 -0.4163
  168SOL    HW1  685   1.417   1.672   1.952  1.0992 -0.3097 -0.1365
  168SOL    HW2  686   1.503   1.555   2.026  0.0297 -0.7743  0.3958
  169SOL     OW  687   2.987   2.584   0.017  0.0717  0.1744 -0.1660
  169SOL    HW1  688   3.042   2.507   0.050  0.7614  1.7111  2.5742
  169SOL    HW2  689   3.044   2.644  -0.038  1.3456  1.7776  2.6844
  170SOL     OW  690   1.564   1.576   2.731  0.2717 -0.2769 -0.1268
  170SOL    HW1  691   1.629   1.644   2.697  2.1804 -1.8285  0.2401
  170SOL    HW2  692   1.527   1.525   2.654  0.2708 -0.0618 -0.2704
  171SOL     OW  693   2.610   2.735   1.664  0.3692  0.6641  0.6429
  171SOL    HW1  694   2.647   2.823   1.693  0.0374  0.3953  1.9516
  171SOL    HW2  695   2.609   2.672   1.742  0.2075 -0.3719 -0.1656
  172SOL     OW  696   3.701   1.516   4.304  0.0960  0.4804 -0.3536
  172SOL    HW1  697   3.635   1.559   4.365  0.9426 -0.3457  1.2102
  172SOL    HW2  698   3.775   1.476   4.358  0.8647 -0.3412 -1.9294
  173SOL     OW  699   2.805   0.825   1.079  0.6046  0.1682  0.3814
  173SOL    HW1  700   2.791   0.850   1.175  2.7114  1.5449  0.3820
  173SOL    HW2  701   2.826   0.728   1.074 -2.0779 -0.5473  0.9749
  174SOL     OW  702   2.542   4.946   0.833  0.3452 -0.1603 -0.2804
  174SOL    HW1  703   2.620   4.969   0.891 -0.5169  0.9784  0.4767
  174SOL    HW2  704   2.547   4.849   0.807  1.2826 -0.4407  0.8678
  175SOL     OW  705   2.840   4.840   2.876 -0.2343  0.1740 -0.1975
  175SOL    HW1  706   2.922   4.841   2.819 -0.8640 -0.5990 -1.1718
  175SOL    HW2  707   2.863   4.865   2.969  0.6958  2.3365 -0.9630
  176SOL     OW  708   2.793   1.506   2.835  0.2084 -0.2335 -0.1105
  176SOL    HW1  709   2.793   1.423   2.891 -0.4868 -0.0611  0.1611
  176SOL    HW2  710   2.856   1.572   2.875  1.1401 -0.8056 -0.6076
  177SOL     OW  711   1.429   2.941   3.139 -0.2541 -0.1322 -0.1722
  177SOL    HW1  712   1.431   3.041   3.142 -0.9073 -0.1306  0.3966
  177SOL    HW2  713   1.403   2.906   3.229 -2.6454 -0.7224 -1.0113
  178SOL     OW  714   2.984   0.675   0.788  0.1064  0.2633 -0.4916
  178SOL    HW1  715   3.011   0.747   0.852  0.5493 -0.1231 -0.2335
  178SOL    HW2  716   2.990   0.587   0.835 -1.9158  0.1641 -0.3176
  179SOL     OW  717   2.275   1.664   2.696 -0.4580 -0.4682  0.3009
  179SOL    HW1  718   2.348   1.732   2.699  0.3618 -1.3371  0.5436
  179SOL    HW2  719   2.219   1.672   2.778  0.5842 -1.0766  1.1064
  180SOL     OW  720   2.715   2.146   0.337 -0.2914  0.1150 -0.3451
  180SOL    HW1  721   2.712   2.126   0.435 -1.4378  2.5735  0.1997
  180SOL    HW2  722   2.633   2.109   0.293 -0.6624  0.5707 -0.0354
  181SOL     OW  723   2.907   2.824   1.404 -0.6099 -0.5136  0.6133
  181SOL    HW1  724   2.882   2.914   1.440 -1.0833 -0.1919 -0.4892
  181SOL    HW2  725   3.003   2.826   1.375 -0.5490 -0.4425  0.8161
  182SOL     OW  726   2.608   0.335   3.213  0.3717  0.0185 -0.5564
  182SOL    HW1  727   2.529   0.396   3.214  0.9253  0.7882 -1.5866
  182SOL    HW2  728   2.649   0.336   3.122  0.6531 -1.5850 -0.4844
  183SOL     OW  729   3.426   2.735   0.357  0.2006  0.8174 -0.0805
  183SOL    HW1  730   3.372   2.694   0.284  0.5804 -1.8829  1.0327
  183SOL    HW2  731   3.512   2.769   0.319  0.8382 -1.4238 -0.8415
  184SOL     OW  732   2.675   0.182   2.037  0.2042 -0.3427 -0.5494
  184SOL    HW1  733   2.640   0.192   1.943  0.5771 -1.1315 -0.7773
  184SOL    HW2  734   2.774   0.174   2.034  0.0938 -2.1571 -0.2437
  185SOL     OW  735   1.729   4.667   2.280 -0.7454  0.2797 -0.2973
  185SOL    HW1  736   1.664   4.654   2.355  0.3863  0.5843  0.7819
  185SOL    HW2  737   1.761   4.578   2.248 -0.2436  0.1608  0.5066
  186SOL     OW  738   1.837   2.121   0.614  0.3903  0.6467 -0.2689
  186SOL    HW1  739   1.885   2.187   0.671 -1.0189  1.1872  0.3118
  186SOL    HW2  740   1.872   2.029   0.633  2.6245  1.2005 -1.3427
  187SOL     OW  741   1.861   2.563   3.706  0.3244  0.2170  0.2910
  187SOL    HW1  742   1.928   2.594   3.639 -0.8463 -0.5170 -1.2870
  187SOL    HW2  743   1.847   2.465   3.696  0.8770 -0.1167  2.3559
  188SOL     OW  744   1.287   1.526   1.223 -0.3055  0.9023  0.2329
  188SOL    HW1  745   1.239   1.460   1.165 -0.6391  2.4367 -1.3023
  188SOL    HW2  746   1.385   1.519   1.207 -0.3387  0.7820  0.0790
  189SOL     OW  747   3.612   2.295   3.486 -0.2261 -0.3096 -0.1002
  189SOL    HW1  748   3.604   2.233   3.564  1.2473 -0.8808 -0.3734
  189SOL    HW2  749   3.688   2.357   3.500 -1.6482  1.4457  0.1325
  190SOL     OW  750   1.215   2.930   2.599  0.2448 -0.1869 -0.4566
  190SOL    HW1  751   1.205   3.019   2.643 -2.3312 -0.1627 -0.9160
  190SOL    HW2  752   1.217   2.943   2.499 -2.4398 -0.6971 -0.6429
  191SOL     OW  753   3.120   2.397   2.454  0.1838 -0.0467 -0.6787
  191SOL    HW1  754   3.203   2.352   2.421  0.0887 -0.3805 -0.4688
  191SOL    HW2  755   3.103   2.369   2.548  0.3761  0.7844 -0.3834
  192SOL     OW  756   3.104   0.860   0.947 -0.1639  0.3712 -0.1286
  192SOL    HW1  757   3.046   0.939   0.968 -0.3588  0.2286 -0.1301
  192SOL    HW2  758   3.172   0.887   0.879 -1.3605  0.0803 -1.4879
  193SOL     OW  759   2.756   1.388   1.875  0.0701 -0.1704 -0.3373
  193SOL    HW1  760   2.773   1.427   1.966  2.0480 -0.8077 -0.3911
  193SOL    HW2  761   2.657   1.385   1.859 -0.3575 -0.4871  1.9724
  194SOL     OW  762   2.685   1.353   2.663  0.0285 -0.4482 -0.0541
  194SOL    HW1  763   2.726   1.430   2.712 -0.2562 -0.8294  0.8144
  194SOL    HW2  764   2.753   1.281   2.652 -0.4501 -1.2066  1.6620
  195SOL     OW  765   2.406   3.743   3.015  0.1868 -0.1293 -0.4018
  195SOL    HW1  766   2.383   3.647   2.995  0.9824 -0.3877 -0.0793
  195SOL    HW2  767   2.398   3.759   3.113 -1.0573  0.4476 -0.5675
  196SOL     OW  768   3.935   2.657   3.563 -0.0513  0.4948  0.3331
  196SOL    HW1  769   3.927   2.637   3.465  1.8997  1.1643 -0.0054
  196SOL    HW2  770   3.934   2.571   3.614  0.4067  0.0305 -0.4138
  197SOL     OW  771   3.011   3.399   3.957 -0.0047  0.5471  0.0090
  197SOL    HW1  772   2.963   3.321   3.999 -0.8612  2.1042  2.1173
  197SOL    HW2  773   3.102   3.407   3.998  0.3549  0.2669 -0.7188
  198SOL     OW  774   3.082   1.780   1.443 -0.1066 -0.3010  0.2625
  198SOL    HW1  775   3.023   1.702   1.426  0.8998 -1.0767  0.2112
  198SOL    HW2  776   3.027   1.859   1.471 -1.2705 -0.6276 -1.0353
  199SOL     OW  777   2.911   4.263   1.848  0.3981 -0.4496  0.0239
  199SOL    HW1  778   2.813   4.269   1.830  0.0506 -0.3557  1.7140
  199SOL    HW2  779   2.956   4.345   1.814 -0.5797  0.8374  1.6679
  200SOL     OW  780   2.523   2.943   3.962  0.3791  0.3079 -0.0632
  200SOL    HW1  781   2.484   2.995   4.038  0.2434  0.2357 -0.0821
  200SOL    HW2  782   2.461   2.947   3.884 -0.1896 -0.8138  0.3019
  201SOL     OW  783   3.406   3.842   1.394 -0.0805  1.0118  0.0127
  201SOL    HW1  784   3.501   3.831   1.365 -0.0640  0.3095  0.3233
  201SOL    HW2  785   3.402   3.843   1.494 -0.6423 -1.4935  0.0731
  202SOL     OW  786   2.413   2.126   4.207 -0.0057  0.7063  0.3746
  202SOL    HW1  787   2.359   2.170   4.279 -0.5830  1.3592 -0.4300
  202SOL    HW2  788   2.491   2.183   4.184 -1.2691  1.8426 -1.3245
  203SOL     OW  789   2.534   3.314   0.367  0.1488 -0.2040 -0.3552
  203SOL    HW1  790   2.487   3.322   0.279 -0.3612  0.6527 -0.0124
  203SOL    HW2  791   2.603   3.242   0.361 -1.0080 -1.2952 -0.9584
  204SOL     OW  792   2.115   3.923   3.239  0.5712  0.3211  0.8729
  204SOL    HW1  793   2.210   3.891   3.242  0.6450  0.4333  0.1040
  204SOL    HW2  794   2.066   3.870   3.169  0.5276  1.4351  0.0365
  205SOL     OW  795   1.464   1.618   1.523 -0.2614  0.1464  0.5268
  205SOL    HW1  796   1.377   1.666   1.532 -0.0255  0.5755  0.5537
  205SOL    HW2  797   1.530   1.657   1.587 -0.1895 -0.5108  0.8718
  206SOL     OW  798   2.342   3.926   2.070  0.3025  0.3214  0.2928
  206SOL    HW1  799   2.418   3.953   2.130 -0.3279 -1.8832  2.2287
  206SOL    HW2  800   2.260   3.975   2.097  0.7787  2.1394 -1.3154
  207SOL     OW  801   3.369   3.405   4.124 -0.0318 -0.0484  0.6358
  207SOL    HW1  802   3.407   3.447   4.041  0.2213  0.4678  1.0086
  207SOL    HW2  803   3.377   3.306   4.116 -0.0299 -0.0067  0.0308
  208SOL     OW  804   2.252   2.756   4.589  0.1954 -0.5610  0.5263
  208SOL    HW1  805   2.177   2.819   4.569  0.8203 -0.4580 -1.7186
  208SOL    HW2  806   2.338   2.807   4.591  0.4819 -1.0411  0.7670
  209SOL     OW  807   2.722   1.495   0.713 -0.7304  0.2052  0.0828
  209SOL    HW1  808   2.662   1.572   0.735 -1.4884 -0.3296 -0.0842
  209SOL    HW2  809   2.723   1.430   0.789 -2.0267 -0.8130 -0.7283
  210SOL     OW  810   3.332   4.444   3.339 -0.2166 -0.6819  0.0763
  210SOL    HW1  811   3.364   4.492   3.258 -0.8502 -1.9228 -0.9405
  210SOL    HW2  812   3.400   4.376   3.367 -0.4421 -0.9495 -0.0216
  211SOL     OW  813   1.888   1.611   2.913  0.3241 -0.7687  0.0188
  211SOL    HW1  814   1.833   1.651   2.840 -1.0252 -0.7098  1.0242
  211SOL    HW2  815   1.862   1.516   2.926 -0.4182 -0.4258  1.2754
  212SOL     OW  816   2.360   0.543   1.938  0.3195 -0.2857  0.0836
  212SOL    HW1  817   2.394   0.611   1.874 -0.2320 -0.7975 -0.7653
  212SOL    HW2  818   2.278   0.580   1.983  0.7017  0.0694  0.5013
  213SOL     OW  819   2.926   4.321   3.119 -0.3418  0.0331 -0.0997
  213SOL    HW1  820   2.988   4.324   3.198 -1.0132 -1.0649  0.4927
  213SOL    HW2  821   2.840   4.367   3.143  0.3434  1.9073 -1.0529
  214SOL     OW  822   2.684   4.055   2.667  0.5699  0.0410 -0.4965
  214SOL    HW1  823   2.711   4.107   2.748  0.7074  0.2984 -0.7087
  214SOL    HW2  824   2.634   4.114   2.604 -0.6252 -0.4586 -0.0514
  215SOL     OW  825   2.474   3.302   0.817 -0.4525 -0.1452 -0.0793
  215SOL    HW1  826   2.489   3.206   0.794  1.9695  0.1409  0.1318
  215SOL    HW2  827   2.557   3.341   0.855 -1.1930  2.2153 -0.6956
  216SOL     OW  828   1.628   2.063   2.483  0.1228  0.8950  0.1910
  216SOL    HW1  829   1.661   2.030   2.572  0.6166  1.9856  0.4351
  216SOL    HW2  830   1.664   2.155   2.467  0.1363  0.6692 -1.2028
  217SOL     OW  831   3.120   3.819   0.970 -0.1685 -0.2627  0.2652
  217SOL    HW1  832   3.035   3.835   1.020 -0.8796 -1.0164 -0.6440
  217SOL    HW2  833   3.194   3.802   1.034 -0.4417  1.4760  1.1186
  218SOL     OW  834   2.070   4.761   0.542 -0.2726  0.0520  0.0152
  218SOL    HW1  835   2.125   4.792   0.464  1.2499 -0.5258  0.8288
  218SOL    HW2  836   1.996   4.703   0.508  0.2965 -0.0999 -1.0173
  219SOL     OW  837   2.195   1.584   3.890 -0.1696 -0.8194 -0.3043
  219SOL    HW1  838   2.282   1.630   3.909 -0.2329 -0.6796 -0.3478
  219SOL    HW2  839   2.213   1.492   3.857  0.0158 -0.3263 -1.6421
  220SOL     OW  840   3.528   3.380   2.837  0.0684  0.2419  0.2679
  220SOL    HW1  841   3.600   3.324   2.794 -1.1183  0.2780 -1.9375
  220SOL    HW2  842   3.442   3.365   2.789 -0.8293  2.1575  1.1677
  221SOL     OW  843   3.094   3.461   0.004 -1.0870  0.7444 -0.2606
  221SOL    HW1  844   3.140   3.440   0.090 -0.2201  0.2506 -0.8216
  221SOL    HW2  845   3.031   3.387  -0.019 -0.8388  0.5659 -0.3682
  222SOL     OW  846   2.128   2.870   0.366 -0.6341  0.1117 -0.0252
  222SOL    HW1  847   2.036   2.841   0.343 -0.2333  0.2938 -1.9905
  222SOL    HW2  848   2.191   2.846   0.292  0.1490  3.6947 -0.7414
  223SOL     OW  849   2.539   4.134   1.979  0.4403  0.3724  0.1456
  223SOL    HW1  850   2.447   4.119   1.945  0.3189 -0.5220  0.8403
  223SOL    HW2  851   2.595   4.054   1.960  0.6912  0.3438  0.9674
  224SOL     OW  852   1.665   1.542   0.643 -0.5362  0.5436 -0.0325
  224SOL    HW1  853   1.714   1.595   0.713 -0.4238  0.4725 -0.0567
  224SOL    HW2  854   1.571   1.526   0.673 -0.1410 -0.5660  0.6776
  225SOL     OW  855   1.750   4.339   0.370  0.2470  0.4391 -0.3008
  225SOL    HW1  856   1.812   4.414   0.394  0.6326  0.4067 -1.1309
  225SOL    HW2  857   1.672   4.340   0.431  1.1667  0.3579  0.9051
  226SOL     OW  858   2.966   4.144   0.962  0.2450  0.3998 -0.5159
  226SOL    HW1  859   2.995   4.075   0.895  1.8759  0.7834 -0.2456
  226SOL    HW2  860   2.886   4.109   1.012  1.3217 -1.5351 -0.0263
  227SOL     OW  861   1.631   3.641   1.732 -0.0232  0.4274  0.0685
  227SOL    HW1  862   1.720   3.645   1.777 -1.3235 -0.0557  2.8796
  227SOL    HW2  863   1.642   3.600   1.641  2.4755 -0.5791  0.7472
  228SOL     OW  864   1.688   4.095   1.000 -0.1207 -0.6387  0.2443
  228SOL    HW1  865   1.625   4.163   1.039  1.6987  2.1621 -1.3762
  228SOL    HW2  866   1.773   4.095   1.052 -0.0465 -1.6508  0.1447
  229SOL     OW  867   3.412   2.331   0.715  0.4147 -0.1923  0.6792
  229SOL    HW1  868   3.356   2.262   0.669  1.3611 -1.3284  1.1703
  229SOL    HW2  869   3.410   2.416   0.663  1.6332 -1.4829 -1.6444
  230SOL     OW  870   2.028   3.819   0.188 -0.1847 -0.0634 -0.1002
  230SOL    HW1  871   1.937   3.853   0.165 -0.8967 -0.1835  2.2815
  230SOL    HW2  872   2.095   3.891   0.172 -1.0455  0.8790  0.3811
  231SOL     OW  873   2.553   2.637   2.583  0.1158 -0.0167 -0.3280
  231SOL    HW1  874   2.526   2.562   2.642 -0.2630  0.4821  0.1454
  231SOL    HW2  875   2.576   2.602   2.493 -1.1892 -0.5716 -0.4584
  232SOL     OW  876   1.752   2.435   4.871  0.1596 -0.5876  0.2523
  232SOL    HW1  877   1.840   2.431   4.918  0.5344  0.7790 -0.2909
  232SOL    HW2  878   1.761   2.393   4.781  0.7886  1.1968 -0.5551
  233SOL     OW  879   2.344   3.786   4.127 -0.0926 -0.1132 -0.1425
  233SOL    HW1  880   2.408   3.723   4.083  0.2007  0.5966 -0.7434
  233SOL    HW2  881   2.260   3.792   4.073 -0.6781 -1.0204  0.6290
  234SOL     OW  882   2.091   3.571   0.580 -0.4197 -0.0291 -0.0348
  234SOL    HW1  883   2.093   3.559   0.481  2.2634  0.4984 -0.1427
  234SOL    HW2  884   2.079   3.668   0.601 -0.5004 -0.0761  0.1341
  235SOL     OW  885   3.369   2.311   2.006 -0.2028  0.6535 -0.3157
  235SOL    HW1  886   3.377   2.409   1.990  0.2794  0.9071  1.3019
  235SOL    HW2  887   3.381   2.262   1.920 -0.9370  2.0210 -1.2367
  236SOL     OW  888   2.062   1.098   2.055  0.5176 -0.3616 -0.4463
  236SOL    HW1  889   2.011   1.169   2.005 -0.4742 -0.3421  0.5323
  236SOL    HW2  890   2.104   1.139   2.135  1.5189 -0.5267 -0.8764
  237SOL     OW  891   1.681   2.726   2.696 -0.2119  0.3520  0.0428
  237SOL    HW1  892   1.736   2.733   2.779  1.1420  0.5147 -0.8319
  237SOL    HW2  893   1.612   2.798   2.697 -0.4574  0.1218  1.1925
  238SOL     OW  894   3.652   1.867   2.883 -0.1609  0.0393  0.3704
  238SOL    HW1  895   3.638   1.870   2.784 -0.4547  1.3933  0.4344
  238SOL    HW2  896   3.635   1.774   2.916 -1.1434 -0.1811 -0.6955
  239SOL     OW  897   2.439   1.865   2.732 -0.3611  0.2798 -0.6071
  239SOL    HW1  898   2.437   1.944   2.671  0.6783  0.0081 -0.9997
  239SOL    HW2  899   2.528   1.860   2.777 -0.6397 -0.3130 -0.1102
  240SOL     OW  900   2.304   1.636   2.397  0.1633  0.0673 -0.2264
  240SOL    HW1  901   2.283   1.639   2.495 -0.2093  0.4143 -0.3082
  240SOL    HW2  902   2.387   1.583   2.382 -0.3933 -0.9473  0.1710
  241SOL     OW  903   3.096   1.920   3.261 -0.2049 -0.1910  0.1177
  241SOL    HW1  904   3.063   1.977   3.185 -1.2126 -2.2466 -1.0891
  241SOL    HW2  905   3.194   1.903   3.249 -0.3942 -0.6598 -0.8670
  242SOL     OW  906   3.202   3.555   3.306  0.2510  0.3475  0.4847
  242SOL    HW1  907   3.110   3.587   3.285 -0.3345 -1.4936  0.0995
  242SOL    HW2  908   3.235   3.602   3.389 -0.2256  2.4452 -0.4483
  243SOL     OW  909   3.053   3.720   2.124 -0.0146 -0.5909 -0.0723
  243SOL    HW1  910   3.051   3.809   2.079  2.3581 -1.1424 -1.4226
  243SOL    HW2  911   3.057   3.648   2.055  1.9589 -1.5468  0.9692
  244SOL     OW  912   2.027   4.745   2.230 -0.4637  0.1636 -0.2244
  244SOL    HW1  913   1.952   4.785   2.283 -0.6242 -0.8862  0.3582
  244SOL    HW2  914   1.990   4.682   2.162 -0.1201 -0.3618  0.0653
  245SOL     OW  915   2.705   3.013   3.413 -0.1654  0.5514  0.0531
  245SOL    HW1  916   2.727   2.958   3.333 -0.4337  0.6574 -0.0979
  245SOL    HW2  917   2.663   2.955   3.483  0.4779  0.3763  0.2913
  246SOL     OW  918   3.745   3.667   1.085 -0.0393 -0.2667 -0.0604
  246SOL    HW1  919   3.818   3.673   1.017 -1.2249 -0.2586 -1.3813
  246SOL    HW2  920   3.685   3.746   1.076 -0.7043 -0.7036  0.4241
  247SOL     OW  921   1.635   1.992   0.310  0.7120 -0.1630  0.6247
  247SOL    HW1  922   1.724   2.036   0.303  0.7003 -0.3825 -2.0963
  247SOL    HW2  923   1.647   1.893   0.319  1.0388 -0.8775 -4.4911
  248SOL     OW  924   2.200   4.458   2.569 -0.2209 -0.4102 -0.3755
  248SOL    HW1  925   2.112   4.437   2.527  0.2130 -0.1150 -1.4520
  248SOL    HW2  926   2.259   4.503   2.502  0.3050  0.5558  0.6910
  249SOL     OW  927   3.146   1.008   2.146 -0.0952 -0.1576  0.1422
  249SOL    HW1  928   3.188   0.923   2.113 -0.9069 -0.1558 -0.9460
  249SOL    HW2  929   3.143   1.006   2.246  0.8280 -0.9536  0.1649
  250SOL     OW  930   3.709   1.170   3.073 -0.1177 -0.1024 -0.8120
  250SOL    HW1  931   3.637   1.234   3.047  0.0036  0.2886 -0.1880
  250SOL    HW2  932   3.796   1.219   3.079  0.0390 -0.3975 -0.6635
  251SOL     OW  933   3.167   0.809   3.472 -0.8517 -0.3791 -0.4846
  251SOL    HW1  934   3.101   0.776   3.404 -1.3334  0.8825 -0.6672
  251SOL    HW2  935   3.145   0.904   3.494  0.0071 -0.4211  0.5867
  252SOL     OW  936   1.807   4.066   3.897 -0.2932 -0.3385 -0.4043
  252SOL    HW1  937   1.727   4.044   3.843 -0.0810 -1.1914 -0.3802
  252SOL    HW2  938   1.784   4.061   3.994 -1.2788  3.3057 -0.2905
  253SOL     OW  939   2.648   0.020   2.478 -0.0833  0.0067  0.1209
  253SOL    HW1  940   2.704  -0.039   2.419  2.3160  2.1202  0.0862
  253SOL    HW2  941   2.649  -0.015   2.571  0.1499 -0.7257 -0.1501
  254SOL     OW  942   3.487   2.971   3.342 -0.0789  0.5379  0.3653
  254SOL    HW1  943   3.433   3.038   3.292 -0.8541  0.0081  0.4626
  254SOL    HW2  944   3.426   2.917   3.400  0.1310 -1.9084 -1.5494
  255SOL     OW  945   3.396   3.484   1.098 -0.3528 -0.3620  0.7675
  255SOL    HW1  946   3.388   3.418   1.024  0.9808 -1.0715  1.2136
  255SOL    HW2  947   3.470   3.455   1.160 -0.4367  0.9947  1.5468
  256SOL     OW  948   2.946   4.921   1.284 -0.0263 -0.0985 -0.4099
  256SOL    HW1  949   2.976   4.935   1.378 -1.6311  0.2410  0.0818
  256SOL    HW2  950   3.026   4.899   1.227  1.3371  2.0258  0.5342
  257SOL     OW  951   1.686   2.280   1.867  0.3697 -0.2882 -0.0058
  257SOL    HW1  952   1.710   2.308   1.775  0.2019 -0.0941  0.0094
  257SOL    HW2  953   1.750   2.321   1.932  2.4080 -2.8203 -0.2551
  258SOL     OW  954   3.308   3.629   1.525  0.4438 -0.2656 -0.4799
  258SOL    HW1  955   3.359   3.601   1.607 -0.1777  0.9504  0.3604
  258SOL    HW2  956   3.365   3.687   1.468  0.9819 -1.3652 -1.0852
  259SOL     OW  957   3.075   0.794   1.467 -0.3464 -0.2555  0.2258
  259SOL    HW1  958   3.025   0.763   1.547  0.3251  2.6748  1.9465
  259SOL    HW2  959   3.125   0.878   1.490  3.5031 -1.6734 -2.0370
  260SOL     OW  960   1.814   2.754   1.360 -0.0610 -0.1011  0.0268
  260SOL    HW1  961   1.806   2.849   1.390 -2.4503 -0.5552  1.0258
  260SOL    HW2  962   1.911   2.734   1.342  0.7204  2.0360  1.3857
  261SOL     OW  963   2.900   4.972   3.120 -0.0931 -0.4091 -0.6351
  261SOL    HW1  964   2.993   4.959   3.156 -0.2641 -1.6375 -0.5842
  261SOL    HW2  965   2.899   5.052   3.060  0.3983  1.2086  1.4007
  262SOL     OW  966   2.231   2.510   2.428 -0.0938  0.3463 -0.3541
  262SOL    HW1  967   2.233   2.599   2.473 -0.8470 -0.4575  1.3345
  262SOL    HW2  968   2.140   2.469   2.438  0.1292 -0.4850 -1.4175
  263SOL     OW  969   1.961   1.465   2.404  0.1685  0.6813  0.2162
  263SOL    HW1  970   1.947   1.552   2.452  2.3877  1.5786 -0.6381
  263SOL    HW2  971   2.005   1.400   2.465  0.5898  0.9370  0.1904
  264SOL     OW  972   3.206   1.545   1.687  0.0690  0.8808 -0.1485
  264SOL    HW1  973   3.213   1.514   1.782  1.2469  0.7638 -0.2622
  264SOL    HW2  974   3.243   1.638   1.681 -1.3012  1.4386 -0.2442
  265SOL     OW  975   3.002   4.255   2.440  0.0716  0.1798 -0.0696
  265SOL    HW1  976   3.014   4.336   2.497 -1.5978  2.4326 -2.6572
  265SOL    HW2  977   2.907   4.225   2.446  0.2289 -0.4455 -0.5613
  266SOL     OW  978   3.202   1.029   1.566 -0.2806  0.1567 -0.5940
  266SOL    HW1  979   3.123   1.088   1.579  0.7176  1.8567 -1.8358
  266SOL    HW2  980   3.219   0.977   1.650 -1.3455  1.4528  0.4661
  267SOL     OW  981   3.433   1.174   1.001  0.0497 -0.0128 -0.4019
  267SOL    HW1  982   3.365   1.242   1.029  0.8847 -0.5463  3.3916
  267SOL    HW2  983   3.407   1.085   1.037  1.1983 -0.8814 -1.6072
  268SOL     OW  984   3.332   3.903   0.477 -0.2322  1.2657 -0.1677
  268SOL    HW1  985   3.366   3.857   0.559 -1.2186 -0.8019 -0.8404
  268SOL    HW2  986   3.407   3.952   0.434  0.5578  1.4533  1.3533
  269SOL     OW  987   3.095   2.365   0.116  0.2087 -0.5814  0.7154
  269SOL    HW1  988   3.042   2.290   0.155  1.0118 -1.5052  0.0796
  269SOL    HW2  989   3.166   2.328   0.056  0.2417  0.7124 -0.0897
  270SOL     OW  990   2.124   4.875   2.636  0.0059  0.1866  0.1393
  270SOL    HW1  991   2.150   4.810   2.564  1.8459  0.2319  0.7238
  270SOL    HW2  992   2.080   4.954   2.594  1.8189  0.6102 -1.0800
  271SOL     OW  993   3.479   3.395   2.167 -0.1629 -0.2159 -0.3423
  271SOL    HW1  994   3.409   3.360   2.228 -1.2983  0.1840 -1.3677
  271SOL    HW2  995   3.569   3.367   2.201 -0.7537 -0.1499  1.3835
  272SOL     OW  996   1.467   4.358   1.679  0.1938  0.1149  0.1844
  272SOL    HW1  997   1.563   4.335   1.694  0.2609 -0.7365 -1.3742
  272SOL    HW2  998   1.412   4.274   1.682 -0.5878  0.6381  1.5085
  273SOL     OW  999   1.836   3.583   1.076 -0.2010 -0.0563 -0.2360
  273SOL    HW1 1000   1.792   3.591   0.987 -0.7030 -3.1007 -0.3706
  273SOL    HW2 1001   1.925   3.629   1.073 -0.0385 -0.3976 -2.4585
  274SOL     OW 1002   2.584   2.767   3.527 -0.0414 -0.1684  0.8085
  274SOL    HW1 1003   2.493   2.727   3.539  0.0906 -1.4198 -1.7177
  274SOL    HW2 1004   2.653   2.699   3.550  0.1788 -1.2123 -2.4609
  275SOL     OW 1005   1.638   1.053   1.068  0.3187 -0.0063 -0.1489
  275SOL    HW1 1006   1.665   0.974   1.123 -4.2019 -0.2753  2.1249
  275SOL    HW2 1007   1.625   1.132   1.127 -1.9045  0.5018 -1.2180
  276SOL     OW 1008   2.766   4.577   2.901  0.4275  0.0949 -0.0150
  276SOL    HW1 1009   2.855   4.533   2.892  0.1930 -0.4154  0.0677
  276SOL    HW2 1010   2.769   4.667   2.859  0.4964 -0.6014 -1.5755
  277SOL     OW 1011   2.400   1.314   2.065 -0.2490  0.3773 -0.5634
  277SOL    HW1 1012   2.332   1.371   2.111 -0.9228 -1.4877  0.8680
  277SOL    HW2 1013   2.489   1.329   2.106 -0.4901  0.1766  0.0497
  278SOL     OW 1014   1.557   3.000   3.924  0.5308 -0.0419 -0.0290
  278SOL    HW1 1015   1.583   2.994   4.021 -0.9697  1.0053  0.4763
  278SOL    HW2 1016   1.559   3.096   3.896  0.2864 -0.2725 -0.8519
  279SOL     OW 1017   3.073   3.005   3.578 -0.1347  0.3431 -0.3522
  279SOL    HW1 1018   3.011   2.966   3.647  2.8795 -1.1465  1.7619
  279SOL    HW2 1019   3.088   2.937   3.506 -2.2083  1.3955 -1.9129
  280SOL     OW 1020   2.260   0.293   1.915  0.2061 -0.3648 -0.3331
  280SOL    HW1 1021   2.304   0.382   1.923 -0.3575 -0.0312 -0.9317
  280SOL    HW2 1022   2.171   0.295   1.961  0.6815 -0.9667  0.6579
  281SOL     OW 1023   2.682   3.380   3.216  0.1619 -0.0727 -0.7916
  281SOL    HW1 1024   2.709   3.358   3.310 -1.4244  1.1778  0.0184
  281SOL    HW2 1025   2.741   3.331   3.152  1.5974 -0.5824  0.8434
  282SOL     OW 1026   2.668   3.997   4.463 -0.2539  0.3918 -0.2057
  282SOL    HW1 1027   2.730   4.072   4.441 -0.9825  0.9924 -0.2325
  282SOL    HW2 1028   2.602   3.986   4.389  0.4381 -0.9299 -0.6706
  283SOL     OW 1029   2.172   2.470   4.285 -0.5056  0.4686  0.4539
  283SOL    HW1 1030   2.265   2.507   4.292 -0.6691  0.9709 -0.0255
  283SOL    HW2 1031   2.106   2.544   4.297 -0.8322  0.3801 -0.7386
  284SOL     OW 1032   1.855   0.919   2.193 -0.6003 -0.4509 -0.7600
  284SOL    HW1 1033   1.931   0.974   2.158 -1.7408  0.6909 -1.5445
  284SOL    HW2 1034   1.829   0.953   2.283 -1.1708  0.1886 -1.1566
  285SOL     OW 1035   3.021   2.366   0.850 -0.2678  0.7272 -0.4923
  285SOL    HW1 1036   2.937   2.393   0.898 -0.3610  0.0695 -0.2787
  285SOL    HW2 1037   3.011   2.384   0.752 -1.2770 -0.8371 -0.6983
  286SOL     OW 1038   2.090   2.650   2.969 -0.0325 -0.4225  0.2459
  286SOL    HW1 1039   2.134   2.728   3.015  1.6394 -0.6108 -0.9323
  286SOL    HW2 1040   2.148   2.620   2.893 -1.4098 -1.8353 -0.3005
  287SOL     OW 1041   2.461   2.896   2.663  0.0101  0.0927  0.0841
  287SOL    HW1 1042   2.459   2.958   2.584 -0.1918  2.0461  1.5521
  287SOL    HW2 1043   2.505   2.810   2.636 -0.8416  0.3421 -2.3742
  288SOL     OW 1044   1.339   1.065   1.979 -0.7652 -0.2030 -0.3363
  288SOL    HW1 1045   1.313   1.161   1.966  0.8378  0.2780 -0.2509
  288SOL    HW2 1046   1.260   1.014   2.012 -1.0123  1.6376  2.1914
  289SOL     OW 1047   2.764   3.232   4.257 -0.1576 -0.1824  0.1095
  289SOL    HW1 1048   2.782   3.148   4.308 -0.6524 -0.4416 -0.1335
  289SOL    HW2 1049   2.666   3.238   4.238 -0.0108  0.0128 -0.6304
  290SOL     OW 1050   3.143   1.190   2.392  0.4511 -0.0682 -0.2382
  290SOL    HW1 1051   3.113   1.233   2.478 -0.5045 -0.4263 -0.3811
  290SOL    HW2 1052   3.241   1.205   2.380  0.3534  1.0515  0.2974
  291SOL     OW 1053   1.631   4.052   2.824 -0.5519 -0.5657  0.0262
  291SOL    HW1 1054   1.711   3.996   2.841  0.6380  0.0367 -2.9785
  291SOL    HW2 1055   1.653   4.148   2.844  0.6541  0.0562 -3.5121
  292SOL     OW 1056   2.015   1.923   1.839 -0.1860  0.4164 -0.7401
  292SOL    HW1 1057   2.001   1.977   1.756 -0.8602  0.4791 -0.5867
  292SOL    HW2 1058   2.037   1.984   1.915 -1.6422  0.5494 -0.4092
  293SOL     OW 1059   1.475   3.153   2.151  0.6027 -0.2584  0.0703
  293SOL    HW1 1060   1.558   3.099   2.136  0.8925  0.5290 -1.3404
  293SOL    HW2 1061   1.396   3.103   2.117  0.8708  0.1835 -1.2401
  294SOL     OW 1062   2.212   1.960   0.345  0.6290  0.0527 -0.8469
  294SOL    HW1 1063   2.300   1.937   0.303  0.9606 -0.3141  0.0041
  294SOL    HW2 1064   2.223   2.043   0.400  0.5585 -0.2416 -0.3847
  295SOL     OW 1065   2.396   0.985   3.094 -0.4993  0.0831  0.2102
  295SOL    HW1 1066   2.332   1.043   3.145  0.2319  1.6354 -0.5712
  295SOL    HW2 1067   2.455   1.043   3.039  0.7849 -1.3970 -0.0221
  296SOL     OW 1068   3.606   2.672   3.660  0.0028 -0.2008  0.0659
  296SOL    HW1 1069   3.665   2.753   3.665 -0.7019  0.5098 -1.9637
  296SOL    HW2 1070   3.652   2.602   3.605 -0.7907  0.1802 -1.1307
  297SOL     OW 1071   2.997   4.155   2.096 -0.4119 -0.8816  0.9639
  297SOL    HW1 1072   2.965   4.226   2.034  0.4377 -0.2732  1.2165
  297SOL    HW2 1073   2.931   4.145   2.171 -1.2461 -1.3557  0.1989
  298SOL     OW 1074   1.158   2.811   1.253  1.0156  0.0020  0.2620
  298SOL    HW1 1075   1.182   2.902   1.286 -0.4090  0.9376 -1.1315
  298SOL    HW2 1076   1.209   2.792   1.169  1.9459 -0.8696  1.0001
  299SOL     OW 1077   2.334   4.581   3.031 -0.6557 -0.3631 -0.0136
  299SOL    HW1 1078   2.305   4.663   3.080 -0.2302 -0.1561 -0.1074
  299SOL    HW2 1079   2.264   4.556   2.964 -0.3003  0.5335 -0.7278
  300SOL     OW 1080   2.479   3.908   2.298  0.4469 -0.1331  0.6149
  300SOL    HW1 1081   2.400   3.854   2.326 -0.5945  0.9355 -0.1806
  300SOL    HW2 1082   2.521   3.950   2.378  0.2614 -0.7738  1.0483
  301SOL     OW 1083   2.844   4.573   1.545  0.3682 -0.4039  0.5963
  301SOL    HW1 1084   2.775   4.555   1.475  0.2707 -0.2907  0.6639
  301SOL    HW2 1085   2.818   4.654   1.597  0.1233 -0.8439  1.1699
  302SOL     OW 1086   2.899   2.654   1.856  0.4463  0.2442 -0.1208
  302SOL    HW1 1087   2.949   2.672   1.770  0.3087 -1.9079 -0.6898
  302SOL    HW2 1088   2.945   2.581   1.906 -1.6462 -1.2329 -0.2533
  303SOL     OW 1089   2.632   1.554   4.417 -0.0183  0.4510  0.3475
  303SOL    HW1 1090   2.689   1.576   4.496  1.6893 -0.5393 -0.5401
  303SOL    HW2 1091   2.682   1.490   4.358 -1.7668  0.1631 -0.8839
  304SOL     OW 1092   2.936   2.880   2.212 -0.8395 -0.2066  0.3611
  304SOL    HW1 1093   2.971   2.873   2.306  1.9606  0.7537 -0.5317
  304SOL    HW2 1094   2.903   2.973   2.197 -0.3031 -0.0554  0.0976
  305SOL     OW 1095   2.890   3.234   1.226 -0.5062  0.3146 -0.1511
  305SOL    HW1 1096   2.818   3.298   1.255 -1.3586 -1.1696  1.1756
  305SOL    HW2 1097   2.974   3.255   1.275 -1.2031 -0.4890  1.4509
  306SOL     OW 1098   2.641   4.850   3.912  0.1013  0.2903  0.2675
  306SOL    HW1 1099   2.609   4.818   4.001 -0.0178 -0.6400 -0.0935
  306SOL    HW2 1100   2.592   4.933   3.886  0.0153  0.4663  0.9849
  307SOL     OW 1101   2.342   2.126   3.950 -0.0799 -0.5801 -0.4888
  307SOL    HW1 1102   2.394   2.145   4.033  1.1285  0.8330 -1.5105
  307SOL    HW2 1103   2.258   2.181   3.950 -0.2189 -0.7911 -0.0838
  308SOL     OW 1104   2.568   1.980   3.575  0.2475  0.0621 -0.2812
  308SOL    HW1 1105   2.597   1.917   3.503 -0.1568  0.8947 -1.2043
  308SOL    HW2 1106   2.537   1.928   3.654 -1.0069 -0.9435 -1.3795
  309SOL     OW 1107   2.352   2.078   2.131 -0.0832 -0.0317 -0.2654
  309SOL    HW1 1108   2.254   2.076   2.110 -0.4324 -0.2955  1.2425
  309SOL    HW2 1109   2.397   2.144   2.070 -0.8956 -1.0565 -2.0564
  310SOL     OW 1110   2.926   3.445   4.361  0.3248 -0.8802  0.7525
  310SOL    HW1 1111   2.870   3.372   4.322 -1.2185  0.3609  0.5516
  310SOL    HW2 1112   2.884   3.534   4.341  1.8818  0.0551  1.4159
  311SOL     OW 1113   3.437   0.734   1.758 -0.3272  0.0620 -0.3073
  311SOL    HW1 1114   3.505   0.786   1.707  0.4758 -1.5145 -0.9121
  311SOL    HW2 1115   3.358   0.792   1.777  1.4815  2.2016  1.1298
  312SOL     OW 1116   3.100   1.815   4.583 -1.0597 -0.1731  0.0933
  312SOL    HW1 1117   3.123   1.845   4.490  3.3550 -1.4120  0.5713
  312SOL    HW2 1118   3.146   1.875   4.649 -1.6547 -1.1104  1.3871
  313SOL     OW 1119   1.997   1.338   4.124  0.1185 -0.3673 -0.0811
  313SOL    HW1 1120   1.924   1.405   4.109  1.3887  0.9312 -0.7204
  313SOL    HW2 1121   2.020   1.335   4.221 -0.8888 -0.9312  0.1563
  314SOL     OW 1122   3.247   1.637   4.759  0.0604 -0.3766  0.1094
  314SOL    HW1 1123   3.276   1.704   4.690  0.7893 -0.5667  0.2257
  314SOL    HW2 1124   3.223   1.686   4.843  0.2768 -0.2324  0.0891
  315SOL     OW 1125   3.167   0.733   1.163 -0.1201  0.0963  0.5170
  315SOL    HW1 1126   3.131   0.790   1.089 -1.6834 -0.6073  0.6759
  315SOL    HW2 1127   3.128   0.764   1.250 -0.7341 -0.9753  0.6453
  316SOL     OW 1128   2.440   1.303   2.724  0.1733  0.2041  0.0641
  316SOL    HW1 1129   2.398   1.393   2.709  1.2619  0.4944 -1.5020
  316SOL    HW2 1130   2.539   1.312   2.718  0.3660 -0.8582  1.4270
  317SOL     OW 1131   1.939   0.757   2.864 -0.2958  0.0663 -0.2588
  317SOL    HW1 1132   2.018   0.790   2.916 -0.2502  2.5485 -1.7619
  317SOL    HW2 1133   1.968   0.683   2.804  0.4069 -0.4449  0.6727
  318SOL     OW 1134   3.477   0.744   2.258  0.1384 -0.0874  0.4341
  318SOL    HW1 1135   3.410   0.745   2.184 -1.4858  1.4142  1.8376
  318SOL    HW2 1136   3.436   0.706   2.340  0.7686  1.4395  1.5074
  319SOL     OW 1137   3.485   0.831   2.706 -0.1580 -1.4775  0.1271
  319SOL    HW1 1138   3.562   0.868   2.654  0.4978 -0.5633  1.6582
  319SOL    HW2 1139   3.435   0.765   2.650  1.6447 -1.9838 -0.9542
  320SOL     OW 1140   2.619   3.504   2.343  0.0200  0.1691 -0.7065
  320SOL    HW1 1141   2.693   3.444   2.372 -0.1607  0.6788  0.9266
  320SOL    HW2 1142   2.656   3.575   2.282  0.8160  0.2232 -0.1688
  321SOL     OW 1143   3.031   3.318   0.458 -0.0123  0.2145  0.5507
  321SOL    HW1 1144   3.032   3.224   0.492  0.5174  0.0331  0.0381
  321SOL    HW2 1145   2.944   3.361   0.484 -0.1853 -0.3543  0.9395
  322SOL     OW 1146   1.685   1.256   1.818 -0.2625  0.3418  0.1141
  322SOL    HW1 1147   1.645   1.291   1.733  0.3618  0.9666  0.0691
  322SOL    HW2 1148   1.640   1.170   1.842  0.1812 -0.3227 -1.3376
  323SOL     OW 1149   3.254   2.106   3.714  0.5790  0.5079  0.2708
  323SOL    HW1 1150   3.212   2.099   3.804  1.5047 -0.8411  0.6198
  323SOL    HW2 1151   3.349   2.074   3.719  1.2174  2.0823 -0.8088
  324SOL     OW 1152   2.609   4.239   1.111  0.0112  0.0288 -0.3177
  324SOL    HW1 1153   2.547   4.292   1.169  0.9527  0.0965  0.6714
  324SOL    HW2 1154   2.599   4.142   1.132  0.3566  0.0536 -0.0246
  325SOL     OW 1155   2.414   4.348   1.274 -0.2178 -0.0081  0.3910
  325SOL    HW1 1156   2.332   4.353   1.331  0.7825  0.2722  1.8654
  325SOL    HW2 1157   2.447   4.441   1.256 -0.2213 -0.1172 -0.1947
  326SOL     OW 1158   3.696   1.497   2.290  0.1092 -0.2554  0.3250
  326SOL    HW1 1159   3.687   1.405   2.252  0.7449  0.1213 -0.7824
  326SOL    HW2 1160   3.671   1.495   2.387  1.4008 -1.8592  0.6648
  327SOL     OW 1161   2.261   4.522   1.988 -0.7941  0.0603 -0.0858
  327SOL    HW1 1162   2.341   4.543   2.043 -1.3018  0.0667  0.6635
  327SOL    HW2 1163   2.236   4.602   1.933  0.6012 -0.4161 -1.4893
  328SOL     OW 1164   1.786   1.964   0.933  0.0636 -0.3898 -0.2327
  328SOL    HW1 1165   1.724   1.956   1.011  0.7993  0.0280  0.4171
  328SOL    HW2 1166   1.878   1.985   0.967  0.6878 -1.5550 -1.1386
  329SOL     OW 1167   3.186   0.216   1.561 -0.3417  0.5822 -0.0699
  329SOL    HW1 1168   3.270   0.168   1.536 -0.4404  1.6494 -2.8095
  329SOL    HW2 1169   3.128   0.224   1.480 -2.6235  0.8545  1.4987
  330SOL     OW 1170   2.785   3.967   3.053  0.1482  0.0247 -0.4187
  330SOL    HW1 1171   2.746   3.979   3.144 -0.3579  0.1528 -0.6428
  330SOL    HW2 1172   2.881   3.942   3.060  0.3328  0.8828  0.1286
  331SOL     OW 1173   1.237   1.528   1.758  0.1068  0.0761  0.2147
  331SOL    HW1 1174   1.181   1.521   1.675 -0.6497 -0.6554  0.7809
  331SOL    HW2 1175   1.291   1.613   1.753  0.1815 -0.0138 -1.0801
  332SOL     OW 1176   1.795   0.051   2.014 -0.0936 -0.0149  0.5698
  332SOL    HW1 1177   1.881   0.039   1.964 -1.1046 -0.1178 -1.2119
  332SOL    HW2 1178   1.739  -0.031   2.004 -1.3399  0.8899 -0.2082
  333SOL     OW 1179   1.702   1.693   4.939 -0.0513  0.6577  0.5204
  333SOL    HW1 1180   1.755   1.690   5.023 -2.0080 -0.1970  1.8080
  333SOL    HW2 1181   1.607   1.717   4.961 -0.7095 -0.0082 -1.3703
  334SOL     OW 1182   2.746   3.378   4.868 -0.7620  0.2605 -0.7428
  334SOL    HW1 1183   2.742   3.472   4.901  0.0336 -0.7806  2.7561
  334SOL    HW2 1184   2.768   3.378   4.770 -1.4306  3.6593 -1.0184
  335SOL     OW 1185   2.716   4.510   0.930 -0.3376  0.1811  0.0405
  335SOL    HW1 1186   2.766   4.443   0.986 -0.2798 -1.2009 -1.5907
  335SOL    HW2 1187   2.686   4.466   0.845 -1.3451  1.9300 -0.5553
  336SOL     OW 1188   2.905   0.359   2.430 -0.3776 -0.0735 -0.2311
  336SOL    HW1 1189   2.938   0.424   2.362 -1.4572 -0.8644 -1.5893
  336SOL    HW2 1190   2.850   0.289   2.383 -1.6373 -0.3290  1.5489
  337SOL     OW 1191   2.261   0.295   3.569 -0.6128 -0.2015 -0.0045
  337SOL    HW1 1192   2.299   0.384   3.597 -0.0964 -0.5665  0.4939
  337SOL    HW2 1193   2.327   0.248   3.511 -0.6016 -0.5288  0.2664
  338SOL     OW 1194   1.506   2.428   0.517 -0.4378 -0.3070  0.0307
  338SOL    HW1 1195   1.513   2.328   0.511 -0.5792 -0.2712 -0.9480
  338SOL    HW2 1196   1.453   2.452   0.598  0.0798 -1.0034  0.5887
  339SOL     OW 1197   3.314   0.511   1.833  0.1833  0.2227  0.4610
  339SOL    HW1 1198   3.361   0.469   1.910  0.5450 -2.1021 -0.9277
  339SOL    HW2 1199   3.375   0.579   1.791  1.6512 -1.3669 -0.1328
  340SOL     OW 1200   1.671   1.806   2.401 -0.0012 -0.2597  0.5289
  340SOL    HW1 1201   1.675   1.905   2.409  0.5083 -0.2589  0.3221
  340SOL    HW2 1202   1.684   1.765   2.492 -0.6043 -0.1297  0.6727
  341SOL     OW 1203   1.734   2.894   3.373 -0.5407  0.1482 -0.5143
  341SOL    HW1 1204   1.689   2.941   3.449  1.3056 -0.2840  0.9197
  341SOL    HW2 1205   1.727   2.795   3.387 -0.2941  0.0672 -0.9500
  342SOL     OW 1206   1.601   2.211   3.344 -0.0213  0.1581  0.0828
  342SOL    HW1 1207   1.625   2.162   3.261  1.7123  0.1488  0.5572
  342SOL    HW2 1208   1.501   2.208   3.356 -0.3496  0.3814 -2.0994
  343SOL     OW 1209   2.787   0.723   2.136  0.1299  0.1773  0.3573
  343SOL    HW1 1210   2.717   0.656   2.111 -1.1458  1.4782  0.2891
  343SOL    HW2 1211   2.805   0.782   2.057  2.9950 -1.4746 -0.3816
  344SOL     OW 1212   3.097   2.692   2.118 -0.6914 -0.4512  0.2772
  344SOL    HW1 1213   3.065   2.611   2.070 -1.3568  0.3852 -0.7325
  344SOL    HW2 1214   3.018   2.744   2.152 -0.2983  0.0984  0.3766
  345SOL     OW 1215   3.244   1.747   0.991 -0.8628  0.2418 -0.2190
  345SOL    HW1 1216   3.204   1.668   1.036  0.2622 -0.9847 -1.2936
  345SOL    HW2 1217   3.233   1.827   1.049 -4.3451 -0.0924 -0.1901
  346SOL     OW 1218   2.929   4.175   4.412 -0.0157 -0.1976 -0.1072
  346SOL    HW1 1219   2.889   4.245   4.353  1.4419  1.9923  1.3277
  346SOL    HW2 1220   2.986   4.115   4.357  0.9514  1.5020 -1.0669
  347SOL     OW 1221   2.013   0.980   1.393 -0.2647 -0.2165  0.4624
  347SOL    HW1 1222   1.971   0.917   1.458 -0.2419 -0.4832  0.2205
  347SOL    HW2 1223   2.112   0.967   1.393  0.1260  1.9675  2.7058
  348SOL     OW 1224   2.324   4.767   3.543 -0.4034 -0.4743  0.7983
  348SOL    HW1 1225   2.313   4.669   3.527 -2.3677  0.1409 -2.7106
  348SOL    HW2 1226   2.418   4.794   3.525 -0.6322 -1.2633 -1.9974
  349SOL     OW 1227   2.846   2.946   0.788  0.0635  0.3852  0.0689
  349SOL    HW1 1228   2.755   2.988   0.790 -0.1518 -0.0671  0.0888
  349SOL    HW2 1229   2.894   2.967   0.873 -0.7658 -0.9445  0.9066
  350SOL     OW 1230   2.879   3.984   0.711  0.3427 -0.1666 -0.4354
  350SOL    HW1 1231   2.794   3.996   0.763  0.4185 -1.8548  0.1419
  350SOL    HW2 1232   2.886   4.056   0.643 -0.7481  0.9484  0.5758
  351SOL     OW 1233   1.906   4.314   4.342 -0.3391 -0.4171 -0.0312
  351SOL    HW1 1234   1.935   4.365   4.261 -0.4514 -1.9925 -1.1134
  351SOL    HW2 1235   1.941   4.360   4.424 -2.4085  2.7099 -0.7405
  352SOL     OW 1236   3.008   1.592   0.841 -0.1588  0.2594 -0.2436
  352SOL    HW1 1237   2.934   1.641   0.794 -0.8667 -1.2247 -0.7265
  352SOL    HW2 1238   3.090   1.593   0.785 -0.1534  0.9090 -0.2310
  353SOL     OW 1239   3.201   2.764   3.925 -0.2698 -0.0045  0.2554
  353SOL    HW1 1240   3.183   2.778   4.022  2.3000  0.0843  0.8057
  353SOL    HW2 1241   3.280   2.819   3.898 -0.0989 -1.0470 -1.5614
  354SOL     OW 1242   3.086   0.755   3.013 -0.0628  0.5847  0.3890
  354SOL    HW1 1243   3.178   0.794   3.005 -0.6332  2.2677  1.4062
  354SOL    HW2 1244   3.049   0.739   2.922 -0.1073  3.3169 -0.1574
  355SOL     OW 1245   2.111   0.920   0.375 -0.1444 -0.1016 -0.1706
  355SOL    HW1 1246   2.080   0.908   0.469  0.2813  0.2623  0.0189
  355SOL    HW2 1247   2.122   1.018   0.356  0.5453 -0.2025 -0.3403
  356SOL     OW 1248   1.565   2.172   1.483  0.0686  0.1559 -0.4719
  356SOL    HW1 1249   1.603   2.179   1.575 -0.4625  0.9484 -0.2992
  356SOL    HW2 1250   1.527   2.080   1.470  1.5018 -0.4505 -0.4542
  357SOL     OW 1251   2.922   1.555   4.331 -0.3152 -0.3324  0.1666
  357SOL    HW1 1252   2.970   1.552   4.419  0.7627  1.5337 -0.3044
  357SOL    HW2 1253   2.926   1.648   4.294 -1.7710 -0.8044 -1.3207
  358SOL     OW 1254   2.917   0.285   3.836 -0.4128  0.0720 -0.3996
  358SOL    HW1 1255   2.910   0.381   3.861 -1.0920 -0.1768  0.4287
  358SOL    HW2 1256   2.891   0.228   3.915 -0.4494 -0.7798 -1.0045
  359SOL     OW 1257   2.808   0.892   2.334  0.0099  0.0444 -0.0575
  359SOL    HW1 1258   2.804   0.827   2.259  0.9554  0.6865 -0.6918
  359SOL    HW2 1259   2.717   0.902   2.374 -0.7336  0.4164 -1.7571
  360SOL     OW 1260   3.250   2.740   1.074  0.1437  0.2037  0.3959
  360SOL    HW1 1261   3.289   2.760   0.984 -0.8387  2.8650  0.4800
  360SOL    HW2 1262   3.170   2.681   1.063  0.2227  0.2383 -0.4308
  361SOL     OW 1263   3.166   4.735   1.937  0.3410 -0.2449  0.3098
  361SOL    HW1 1264   3.141   4.642   1.963 -1.9894 -0.4334 -2.1856
  361SOL    HW2 1265   3.238   4.731   1.868 -1.2242 -0.3792 -1.3715
  362SOL     OW 1266   3.171   4.830   1.148  0.2329 -0.3424 -0.0135
  362SOL    HW1 1267   3.207   4.803   1.058 -1.5044  0.8775 -1.1577
  362SOL    HW2 1268   3.169   4.750   1.208  3.6851 -0.7230 -0.1688
  363SOL     OW 1269   2.010   2.695   4.375  0.0794  0.4213 -0.3919
  363SOL    HW1 1270   2.005   2.679   4.473  0.8699  1.6302 -0.1307
  363SOL    HW2 1271   1.932   2.752   4.347 -2.7703 -3.4729 -1.3315
  364SOL     OW 1272   3.164   2.888   1.303 -0.2149  0.0089  0.1045
  364SOL    HW1 1273   3.179   2.981   1.269 -0.8560  0.1859  0.2859
  364SOL    HW2 1274   3.194   2.822   1.235  0.4822  0.3458  0.0771
  365SOL     OW 1275   1.569   3.316   4.325  0.2522  0.3383  0.5153
  365SOL    HW1 1276   1.619   3.399   4.349 -1.1210  0.8078  1.9024
  365SOL    HW2 1277   1.517   3.331   4.241 -0.7890  1.2647  1.2951
  366SOL     OW 1278   2.942   3.525   2.616  0.4266 -0.0608  0.3094
  366SOL    HW1 1279   2.979   3.581   2.540  3.3461  0.1176  1.7090
  366SOL    HW2 1280   2.897   3.585   2.681 -1.0232 -0.0640 -0.6429
  367SOL     OW 1281   1.599   3.993   1.613  0.5442  0.2162 -0.4987
  367SOL    HW1 1282   1.508   3.998   1.654  0.2500  1.7376 -1.2406
  367SOL    HW2 1283   1.590   3.986   1.513  1.2501 -1.1924 -0.4862
  368SOL     OW 1284   2.291   3.282   2.731  0.1477 -0.0448 -0.1079
  368SOL    HW1 1285   2.353   3.355   2.761 -0.3104 -0.1322  1.1347
  368SOL    HW2 1286   2.322   3.245   2.644  1.5061  0.3023  0.2118
  369SOL     OW 1287   1.737   2.384   1.610  0.2484  0.4710  0.0577
  369SOL    HW1 1288   1.664   2.413   1.548  0.5686  1.2244  0.0232
  369SOL    HW2 1289   1.824   2.381   1.559  0.6059  1.5890  0.5731
  370SOL     OW 1290   2.642   3.138   4.812 -0.3932  0.2044 -0.0967
  370SOL    HW1 1291   2.658   3.234   4.832 -0.6538  0.8100 -2.4883
  370SOL    HW2 1292   2.623   3.089   4.897 -3.1267  2.7864  0.9576
  371SOL     OW 1293   2.995   3.537   1.239  0.7267  0.1481 -0.2446
  371SOL    HW1 1294   2.980   3.496   1.149  2.3419 -1.3866  0.1337
  371SOL    HW2 1295   3.038   3.470   1.299  0.7705  1.5195  1.3290
  372SOL     OW 1296   2.714   3.711   2.208  1.1526  0.6179  0.4300
  372SOL    HW1 1297   2.676   3.791   2.255  1.7192  1.4468 -0.5037
  372SOL    HW2 1298   2.801   3.736   2.165  0.0004  0.2807 -2.2495
  373SOL     OW 1299   3.059   2.822   0.443 -0.5877 -0.4034  0.0662
  373SOL    HW1 1300   2.988   2.787   0.382 -1.1660  2.8496 -1.3467
  373SOL    HW2 1301   3.128   2.870   0.389  1.3100 -1.2273  1.6595
  374SOL     OW 1302   3.154   4.005   2.787  0.1909 -0.1636 -0.0237
  374SOL    HW1 1303   3.084   3.935   2.771  1.2540 -1.0044 -1.2630
  374SOL    HW2 1304   3.191   4.034   2.699  1.5755  0.0754  0.6111
  375SOL     OW 1305   2.589   0.669   4.011  0.1388 -0.1604  0.1614
  375SOL    HW1 1306   2.653   0.595   4.032  0.3352 -0.8268 -2.5006
  375SOL    HW2 1307   2.496   0.637   4.027  0.2980 -0.2399  1.0161
  376SOL     OW 1308   2.612   3.645   3.470  0.3174 -0.0227 -0.7624
  376SOL    HW1 1309   2.572   3.624   3.380 -0.0561  1.3720 -0.9531
  376SOL    HW2 1310   2.540   3.641   3.539  0.2071  0.7139 -0.8252
  377SOL     OW 1311   2.335   0.002   2.462 -0.1191  0.1436  0.1219
  377SOL    HW1 1312   2.296  -0.089   2.455 -0.5936  0.4728 -2.0395
  377SOL    HW2 1313   2.433  -0.002   2.441 -0.3849  0.2859 -1.2042
  378SOL     OW 1314   2.703   4.588   1.925 -0.7552  0.4306  0.1141
  378SOL    HW1 1315   2.686   4.508   1.867 -1.5212 -0.4015  1.4442
  378SOL    HW2 1316   2.722   4.667   1.866 -0.1577 -0.6677 -1.2327
  379SOL     OW 1317   3.221   3.762   3.523 -0.3127  0.4688 -0.4587
  379SOL    HW1 1318   3.306   3.726   3.562 -0.4926 -0.2235 -0.7019
  379SOL    HW2 1319   3.146   3.746   3.587 -0.4094  0.3485 -0.6039
  380SOL     OW 1320   2.738   1.508   0.314  0.2830 -0.1932 -0.2024
  380SOL    HW1 1321   2.781   1.437   0.258  0.6414  0.9045 -1.3766
  380SOL    HW2 1322   2.716   1.587   0.256 -0.7269  0.3992  0.9299
  381SOL     OW 1323   3.130   0.253   2.571 -0.0719  0.0349 -0.0650
  381SOL    HW1 1324   3.056   0.300   2.523 -2.1114 -2.2038  0.7227
  381SOL    HW2 1325   3.182   0.198   2.506 -0.2174  0.2102 -0.3297
  382SOL     OW 1326   3.231   3.936   4.776 -0.2210  0.4024  0.1765
  382SOL    HW1 1327   3.270   3.857   4.824 -0.9138 -0.1696 -0.1793
  382SOL    HW2 1328   3.305   3.990   4.737  0.2900  0.2078  0.8562
  383SOL     OW 1329   1.818   1.269   3.672 -0.2024 -0.6069  0.3579
  383SOL    HW1 1330   1.806   1.368   3.673 -2.0540 -0.7902 -0.0590
  383SOL    HW2 1331   1.853   1.239   3.761  1.2630  0.4922  0.1834
  384SOL     OW 1332   2.834   3.717   4.277  0.6029 -0.1806 -0.0841
  384SOL    HW1 1333   2.908   3.779   4.303  0.2928  0.2555 -0.2146
  384SOL    HW2 1334   2.792   3.750   4.192 -0.5567  0.3126  0.6552
  385SOL     OW 1335   3.411   2.624   3.341 -0.2699 -0.3962 -0.3030
  385SOL    HW1 1336   3.403   2.528   3.313 -0.4440  0.2019 -2.4742
  385SOL    HW2 1337   3.485   2.667   3.289 -0.3858  0.7320  0.4417
  386SOL     OW 1338   3.355   1.713   1.325  0.7080  0.0123 -0.3356
  386SOL    HW1 1339   3.327   1.704   1.229  0.6749 -0.6979 -0.2643
  386SOL    HW2 1340   3.357   1.622   1.367 -0.5467  0.4359  0.6971
  387SOL     OW 1341   2.400   2.902   1.613  0.7600  0.1395  0.4129
  387SOL    HW1 1342   2.460   2.940   1.542 -1.2210 -1.5506 -2.3843
  387SOL    HW2 1343   2.419   2.804   1.622 -0.8146 -0.1986  0.2191
  388SOL     OW 1344   2.301   2.005   2.515 -0.0742  0.1958  0.0632
  388SOL    HW1 1345   2.250   1.941   2.458 -0.2262  0.3664  0.0039
  388SOL    HW2 1346   2.367   2.054   2.458 -0.6688  0.8248 -0.0995
  389SOL     OW 1347   2.251   4.468   0.688 -0.2496 -0.6548  0.0840
  389SOL    HW1 1348   2.157   4.433   0.691 -0.9082  0.7080 -1.8861
  389SOL    HW2 1349   2.248   4.568   0.694  0.8481 -0.4243 -2.1356
  390SOL     OW 1350   2.375   0.821   3.628  0.5760 -0.1425 -0.0850
  390SOL    HW1 1351   2.469   0.842   3.656  0.4370  0.6017 -0.1610
  390SOL    HW2 1352   2.354   0.727   3.653  1.3161 -0.2902  0.0101
  391SOL     OW 1353   3.443   1.701   2.527 -0.3890 -0.2816 -0.2930
  391SOL    HW1 1354   3.430   1.683   2.430  1.2210  3.3421 -1.3284
  391SOL    HW2 1355   3.355   1.722   2.569 -0.8813 -0.1808 -1.3569
  392SOL     OW 1356   3.184   2.749   3.387 -0.2933 -0.2079  0.2731
  392SOL    HW1 1357   3.262   2.694   3.356  0.8673  1.3575  0.2476
  392SOL    HW2 1358   3.185   2.836   3.338 -1.2019  0.4225  1.3347
  393SOL     OW 1359   1.457   3.230   3.093  0.2574 -0.4105  0.0271
  393SOL    HW1 1360   1.411   3.315   3.119 -0.7665 -0.2979 -1.9777
  393SOL    HW2 1361   1.550   3.230   3.132  0.5980  2.0270 -0.6149
  394SOL     OW 1362   1.292   1.325   1.935 -0.4457  0.1339  0.5072
  394SOL    HW1 1363   1.320   1.374   2.017 -2.7624 -0.0826  1.5259
  394SOL    HW2 1364   1.257   1.390   1.868 -0.9688  0.1143  0.7557
  395SOL     OW 1365   2.275   0.964   1.463 -0.1939 -0.1801  0.4367
  395SOL    HW1 1366   2.334   0.906   1.407  0.6819 -0.1746  1.3325
  395SOL    HW2 1367   2.289   1.059   1.438  0.3682 -0.1603  0.8023
  396SOL     OW 1368   1.625   2.545   2.167 -0.3375 -0.5094 -0.4409
  396SOL    HW1 1369   1.529   2.518   2.158 -0.1631 -1.6318  0.7978
  396SOL    HW2 1370   1.637   2.600   2.250 -0.1651  1.0086 -1.4285
  397SOL     OW 1371   2.612   0.828   3.807  0.0805  0.1503 -0.0872
  397SOL    HW1 1372   2.584   0.760   3.875  1.4665 -0.3626 -0.0028
  397SOL    HW2 1373   2.691   0.794   3.757  0.3017  1.3702 -0.5992
  398SOL     OW 1374   1.735   2.535   4.124  0.5431 -0.7156  0.8683
  398SOL    HW1 1375   1.720   2.604   4.194  0.1453 -0.3299  0.4116
  398SOL    HW2 1376   1.717   2.575   4.034 -0.7902 -1.6997  0.6594
  399SOL     OW 1377   1.398   2.615   1.575 -0.3292  0.0355 -0.3662
  399SOL    HW1 1378   1.438   2.695   1.531 -0.4173 -0.6470 -1.7337
  399SOL    HW2 1379   1.299   2.617   1.563 -0.3342 -0.2736 -0.3911
  400SOL     OW 1380   2.515   0.665   0.629  0.0863 -0.2732 -0.3414
  400SOL    HW1 1381   2.571   0.597   0.581  0.8379  0.2395 -0.2057
  400SOL    HW2 1382   2.460   0.715   0.562 -0.7388 -1.2414 -0.4107
  401SOL     OW 1383   3.471   2.878   2.288 -0.2014  0.3329 -0.1318
  401SOL    HW1 1384   3.462   2.948   2.217 -0.2151 -1.1601 -1.6662
  401SOL    HW2 1385   3.399   2.810   2.277  0.6104 -0.6598  0.4677
  402SOL     OW 1386   3.718   3.394   2.406 -0.4316  0.9859 -0.1307
  402SOL    HW1 1387   3.766   3.330   2.467  0.3256  0.3553 -1.3382
  402SOL    HW2 1388   3.743   3.374   2.311 -1.7696  1.7742 -0.6870
  403SOL     OW 1389   2.252   2.866   0.601  0.7090 -0.5867 -0.1842
  403SOL    HW1 1390   2.349   2.889   0.596  0.7197 -0.8206 -1.3028
  403SOL    HW2 1391   2.212   2.872   0.510 -0.3728 -0.3315  0.2910
  404SOL     OW 1392   2.214   1.755   1.885 -0.2729 -0.3628  0.5286
  404SOL    HW1 1393   2.189   1.661   1.860 -1.4511 -0.9234  3.4444
  404SOL    HW2 1394   2.132   1.813   1.883  0.3470  0.5210 -0.7211
  405SOL     OW 1395   1.453   3.545   2.160  0.2167 -0.2149  0.1059
  405SOL    HW1 1396   1.524   3.495   2.209 -1.3992 -1.0084  1.7952
  405SOL    HW2 1397   1.453   3.641   2.189 -1.0971 -0.7914  2.2857
  406SOL     OW 1398   1.389   2.949   3.419 -0.4331 -0.7421  0.5942
  406SOL    HW1 1399   1.308   2.979   3.470 -0.5752 -1.3212  0.7150
  406SOL    HW2 1400   1.465   2.938   3.482 -0.6907 -1.7653  0.7545
  407SOL     OW 1401   1.644   3.292   1.667  0.8343  0.5525 -0.0178
  407SOL    HW1 1402   1.718   3.339   1.620 -0.8587  0.8992 -2.5505
  407SOL    HW2 1403   1.631   3.333   1.757  1.4849  2.8370 -0.8900
  408SOL     OW 1404   1.990   3.309   2.481 -0.5383  0.4601  0.4499
  408SOL    HW1 1405   2.059   3.285   2.413 -0.5499  1.4616  0.0706
  408SOL    HW2 1406   1.928   3.232   2.493  1.3351 -0.9457  1.7069
  409SOL     OW 1407   2.798   4.976   1.008  0.2111 -0.1687 -0.4010
  409SOL    HW1 1408   2.824   4.967   1.105 -2.2223  0.4488  0.3797
  409SOL    HW2 1409   2.832   4.897   0.958  2.2580 -0.0919  0.7602
  410SOL     OW 1410   3.246   0.940   2.548  0.1531  0.0751 -0.1449
  410SOL    HW1 1411   3.176   0.880   2.511  1.1193 -1.2923  0.1750
  410SOL    HW2 1412   3.235   0.946   2.648  1.1122 -1.0201  0.0466
  411SOL     OW 1413   1.757   1.388   2.837 -1.0832 -0.5909 -0.9946
  411SOL    HW1 1414   1.707   1.350   2.914 -0.1284 -0.1653 -0.1421
  411SOL    HW2 1415   1.694   1.440   2.779 -1.2101  2.3957  1.5931
  412SOL     OW 1416   1.939   1.924   4.624  0.1278  0.1330  0.2908
  412SOL    HW1 1417   1.933   1.834   4.668  0.4764  0.6896  1.5242
  412SOL    HW2 1418   1.948   1.911   4.525 -0.7642 -1.1532  0.3518
  413SOL     OW 1419   2.033   4.956   1.895  0.2588  0.7699 -0.0707
  413SOL    HW1 1420   2.107   4.942   1.960  1.1575  0.4581 -1.1369
  413SOL    HW2 1421   2.029   4.879   1.832 -1.5447  0.3522  0.4738
  414SOL     OW 1422   2.915   2.200   4.082  0.4283 -0.1706 -0.1641
  414SOL    HW1 1423   2.947   2.110   4.051  0.9692 -0.2525  0.5985
  414SOL    HW2 1424   2.989   2.266   4.070 -0.0121  0.2099 -0.8441
  415SOL     OW 1425   3.288   3.313   0.928  0.3822 -0.2643  0.3986
  415SOL    HW1 1426   3.272   3.355   0.839  1.1514  0.2787  0.5065
  415SOL    HW2 1427   3.333   3.225   0.915 -0.5001 -0.6971  0.2078
  416SOL     OW 1428   2.641   3.987   0.851 -0.0586 -0.1343  0.0508
  416SOL    HW1 1429   2.572   3.951   0.787  0.6484 -0.0999 -0.7575
  416SOL    HW2 1430   2.604   3.984   0.944 -1.4112  0.5222 -0.4297
  417SOL     OW 1431   2.762   4.172   0.271 -0.1719 -0.7217  0.1179
  417SOL    HW1 1432   2.726   4.262   0.244  0.2564 -0.2883  0.9702
  417SOL    HW2 1433   2.818   4.136   0.196 -0.8288 -0.5505 -0.4649
  418SOL     OW 1434   2.570   2.441   3.874 -0.4811 -0.2113  0.0695
  418SOL    HW1 1435   2.472   2.443   3.854 -0.3408  0.3620 -0.6134
  418SOL    HW2 1436   2.619   2.403   3.796 -0.1171 -0.0062  0.1957
  419SOL     OW 1437   3.025   1.970   3.971  1.3066  1.3250  0.1324
  419SOL    HW1 1438   3.119   1.937   3.957  0.3881 -0.6735 -1.9538
  419SOL    HW2 1439   2.971   1.952   3.889 -1.1462  1.6317  1.5750
  420SOL     OW 1440   2.361   0.783   0.404 -0.5325  0.1700  0.6395
  420SOL    HW1 1441   2.434   0.852   0.396  0.2939 -0.9092 -2.9979
  420SOL    HW2 1442   2.278   0.818   0.362 -0.5225 -0.5010  0.0393
  421SOL     OW 1443   3.342   2.343   3.966  0.1768  0.4717 -0.1649
  421SOL    HW1 1444   3.246   2.334   3.991  0.1067 -1.7574 -0.9797
  421SOL    HW2 1445   3.353   2.418   3.901 -0.9426  0.9625  0.1954
  422SOL     OW 1446   1.925   1.183   3.920  0.1735 -0.2816  0.4190
  422SOL    HW1 1447   1.953   1.247   3.992 -0.2775 -0.3259  0.6396
  422SOL    HW2 1448   1.940   1.090   3.953  1.2146 -0.2905 -0.0591
  423SOL     OW 1449   2.756   2.425   4.914 -0.7657  0.1756 -0.3433
  423SOL    HW1 1450   2.833   2.468   4.962  0.6586 -1.4799 -1.0116
  423SOL    HW2 1451   2.759   2.326   4.930 -0.1387 -0.5000 -3.8039
  424SOL     OW 1452   2.552   0.465   2.337  0.1308 -0.3810  0.2307
  424SOL    HW1 1453   2.581   0.372   2.312  0.3695 -0.3539  0.4020
  424SOL    HW2 1454   2.555   0.475   2.436  2.5488  0.5700  0.1335
  425SOL     OW 1455   2.499   0.388   2.621 -0.1338 -0.1876 -0.0410
  425SOL    HW1 1456   2.462   0.296   2.608  0.4435 -0.6025  1.1346
  425SOL    HW2 1457   2.426   0.449   2.653 -0.8460  0.1267 -2.1198
  426SOL     OW 1458   3.255   0.123   2.364  0.1890  0.1838 -0.0235
  426SOL    HW1 1459   3.319   0.051   2.391 -1.6009 -1.6728 -0.4421
  426SOL    HW2 1460   3.181   0.082   2.311 -0.5424  2.4875 -0.8959
  427SOL     OW 1461   2.460   1.145   4.146  0.0934  0.7089  0.1132
  427SOL    HW1 1462   2.489   1.138   4.050 -2.1155  1.0175 -0.6558
  427SOL    HW2 1463   2.409   1.231   4.158 -1.3498 -0.2232  1.0446
  428SOL     OW 1464   3.063   0.953   4.614  0.4290 -0.0009 -0.2927
  428SOL    HW1 1465   3.060   0.856   4.639 -2.0578  0.2679  0.7945
  428SOL    HW2 1466   3.079   0.961   4.516  1.3196 -1.4535 -0.3092
  429SOL     OW 1467   3.334   2.950   4.232  0.3863  0.2437 -0.1650
  429SOL    HW1 1468   3.287   2.862   4.219 -1.1932  0.7327  1.7641
  429SOL    HW2 1469   3.311   3.011   4.156 -1.5600  0.2035  0.3382
  430SOL     OW 1470   2.812   3.282   3.430 -0.7993  0.0374 -0.0999
  430SOL    HW1 1471   2.739   3.215   3.441 -0.9284  0.3663  1.2211
  430SOL    HW2 1472   2.866   3.286   3.514  0.1733  0.4686 -0.7242
  431SOL     OW 1473   3.488   3.615   3.495  0.2557 -0.2204  0.2690
  431SOL    HW1 1474   3.570   3.597   3.549  0.1881 -0.6421  0.2351
  431SOL    HW2 1475   3.509   3.605   3.398  0.2794  0.1373  0.2377
  432SOL     OW 1476   1.479   2.888   2.719 -0.3039 -0.2404 -0.5561
  432SOL    HW1 1477   1.479   2.974   2.770 -0.5123 -0.2781 -0.4893
  432SOL    HW2 1478   1.386   2.870   2.687 -0.4312 -0.8484  0.1232
  433SOL     OW 1479   1.656   1.191   2.501 -0.4185 -0.3847 -0.2117
  433SOL    HW1 1480   1.718   1.193   2.579 -0.6889 -1.0141  0.0238
  433SOL    HW2 1481   1.647   1.097   2.468  1.0381  0.0813 -2.1033
  434SOL     OW 1482   2.484   0.710   1.770  0.2155 -0.2177  0.5777
  434SOL    HW1 1483   2.497   0.795   1.821  1.2988 -0.5496  0.8807
  434SOL    HW2 1484   2.552   0.704   1.697  0.5760 -1.1062  0.9655
  435SOL     OW 1485   1.750   2.529   2.473  0.4835 -1.0346  0.7238
  435SOL    HW1 1486   1.726   2.505   2.567 -0.5217 -3.0645  0.0188
  435SOL    HW2 1487   1.706   2.615   2.449 -0.4815 -1.2483  1.6467
  436SOL     OW 1488   2.571   1.760   4.214 -0.2904  0.1311  0.9165
  436SOL    HW1 1489   2.647   1.798   4.161  0.2251 -0.6530  1.0926
  436SOL    HW2 1490   2.602   1.741   4.307 -0.8618  0.3313  1.1547
  437SOL     OW 1491   3.610   3.080   2.956 -0.7887 -0.2420 -0.3533
  437SOL    HW1 1492   3.645   2.988   2.938 -1.7022 -0.5579 -0.5526
  437SOL    HW2 1493   3.655   3.145   2.893 -0.9284 -0.7117 -0.9488
  438SOL     OW 1494   2.885   1.061   4.775  0.1642  0.0217  0.0505
  438SOL    HW1 1495   2.824   1.098   4.705  2.1148  1.0028 -1.2348
  438SOL    HW2 1496   2.967   1.024   4.731  2.1560  2.0482  1.8168
  439SOL     OW 1497   2.514   1.256   3.020  0.1806  0.5973 -0.2232
  439SOL    HW1 1498   2.482   1.214   2.935 -0.2151  0.7433 -0.1488
  439SOL    HW2 1499   2.440   1.252   3.088  0.6785 -0.0280  0.2934
  440SOL     OW 1500   1.937   1.266   0.943 -0.0222 -0.1912 -0.0798
  440SOL    HW1 1501   1.875   1.199   0.903 -0.9775  1.3902 -1.3401
  440SOL    HW2 1502   1.898   1.301   1.028 -0.6055  0.3544 -0.5588
  441SOL     OW 1503   2.061   4.896   2.893  0.1355 -0.2644  0.4076
  441SOL    HW1 1504   2.030   4.803   2.913  0.2534 -0.6194 -0.9498
  441SOL    HW2 1505   2.073   4.906   2.794  2.9233  0.3105  0.7334
  442SOL     OW 1506   2.324   1.875   4.233 -0.1494  0.4557 -0.1063
  442SOL    HW1 1507   2.400   1.813   4.252  0.2737  1.6901  2.7290
  442SOL    HW2 1508   2.360   1.965   4.207 -0.7536  0.0823 -2.5353
  443SOL     OW 1509   2.150   2.570   0.146 -0.6370 -0.1011  0.3602
  443SOL    HW1 1510   2.209   2.536   0.073 -0.2267 -0.2499  0.7534
  443SOL    HW2 1511   2.158   2.670   0.150 -3.3700  0.3412 -2.1140
  444SOL     OW 1512   3.582   1.232   2.178  0.1486 -0.3171 -0.1182
  444SOL    HW1 1513   3.580   1.143   2.224 -0.1215  0.2117  0.9089
  444SOL    HW2 1514   3.652   1.230   2.106 -0.4953 -1.6562 -0.7395
  445SOL     OW 1515   2.065   1.375   4.405  0.0544  0.2165 -0.0968
  445SOL    HW1 1516   1.988   1.432   4.434 -0.3853 -0.8808  0.9983
  445SOL    HW2 1517   2.129   1.365   4.482  1.9329  2.0480 -1.3149
  446SOL     OW 1518   3.124   2.553   3.122  0.3704  0.1666  0.2258
  446SOL    HW1 1519   3.121   2.543   3.221  0.8148  0.8052  0.3104
  446SOL    HW2 1520   3.031   2.556   3.086  0.0769  3.0062  0.9639
  447SOL     OW 1521   3.099   0.474   1.145  0.2802 -0.5382 -0.4943
  447SOL    HW1 1522   3.135   0.567   1.134 -1.0928 -0.2018 -2.9595
  447SOL    HW2 1523   3.160   0.409   1.100 -0.6421 -0.3198 -2.1250
  448SOL     OW 1524   2.297   4.368   1.762  0.2846  0.4245  0.1588
  448SOL    HW1 1525   2.363   4.412   1.700 -0.0841 -0.3061 -0.7746
  448SOL    HW2 1526   2.299   4.415   1.850 -0.5741  2.7849 -0.9909
  449SOL     OW 1527   2.450   1.886   4.750  0.2359 -0.1969  0.1171
  449SOL    HW1 1528   2.389   1.860   4.825 -2.1468  2.2130 -0.8376
  449SOL    HW2 1529   2.399   1.888   4.664  2.6496 -1.8383 -1.5020
  450SOL     OW 1530   2.343   4.152   4.686 -0.2046  0.1972 -0.2252
  450SOL    HW1 1531   2.432   4.196   4.676 -0.2130  0.3460  0.3419
  450SOL    HW2 1532   2.300   4.144   4.596  0.7224 -0.5890 -0.6259
  451SOL     OW 1533   2.991   2.698   4.626 -0.1823 -0.0538  0.0942
  451SOL    HW1 1534   3.030   2.775   4.574 -0.6442  0.2210  0.1450
  451SOL    HW2 1535   3.003   2.715   4.724  0.6133 -0.5328  0.0876
  452SOL     OW 1536   3.235   3.127   4.043  0.0211  0.7549  0.3071
  452SOL    HW1 1537   3.260   3.124   3.946  0.1296 -0.9918  0.3590
  452SOL    HW2 1538   3.138   3.147   4.051  0.4592  3.3585 -0.0373
  453SOL     OW 1539   2.295   2.807   0.181  0.2947 -0.3317 -0.1728
  453SOL    HW1 1540   2.303   2.895   0.134  0.1493 -0.3522 -0.2359
  453SOL    HW2 1541   2.367   2.746   0.148  2.3959  0.7570  2.0647
  454SOL     OW 1542   2.981   3.775   0.580 -0.1772 -0.2439  0.2347
  454SOL    HW1 1543   2.965   3.853   0.641 -1.8768 -0.2570 -0.1398
  454SOL    HW2 1544   3.025   3.702   0.631  0.9211  0.7278  0.7400
  455SOL     OW 1545   1.898   1.597   4.485  0.1276  0.1987 -0.2822
  455SOL    HW1 1546   1.808   1.615   4.444  0.9172  0.9213 -1.7647
  455SOL    HW2 1547   1.897   1.628   4.580 -0.9521  0.9254 -0.5025
  456SOL     OW 1548   2.526   1.834   1.540  0.4934  0.1599  0.1549
  456SOL    HW1 1549   2.613   1.874   1.568  1.2442 -0.9486 -0.5106
  456SOL    HW2 1550   2.516   1.845   1.441 -1.7557  3.3229  0.5832
  457SOL     OW 1551   1.884   3.291   3.896  0.0142 -0.1537  0.7747
  457SOL    HW1 1552   1.932   3.211   3.933  2.1741  1.6018  2.0243
  457SOL    HW2 1553   1.893   3.367   3.960 -1.0246  1.4296 -0.8614
  458SOL     OW 1554   3.570   2.147   2.618  0.0512  0.1599  0.0692
  458SOL    HW1 1555   3.617   2.060   2.611 -0.9888 -0.5008  0.8994
  458SOL    HW2 1556   3.581   2.198   2.532  2.9783  0.4644  0.5182
  459SOL     OW 1557   2.116   3.498   3.381 -0.3204  0.2607 -0.3480
  459SOL    HW1 1558   2.020   3.473   3.374 -0.6788  0.6371  2.1452
  459SOL    HW2 1559   2.168   3.421   3.419 -0.0170  0.6930  0.1340
  460SOL     OW 1560   1.888   3.605   1.856 -0.2966 -0.4017 -0.0825
  460SOL    HW1 1561   1.963   3.546   1.827  1.3910  1.0667  1.0307
  460SOL    HW2 1562   1.871   3.591   1.954 -0.4649  0.3164 -0.0028
  461SOL     OW 1563   2.729   0.917   2.741  0.6835 -0.3295  0.3348
  461SOL    HW1 1564   2.747   0.996   2.683 -1.1207  0.1606  0.3859
  461SOL    HW2 1565   2.691   0.843   2.685  0.7297 -0.5278  0.5642
  462SOL     OW 1566   1.769   3.113   0.157  0.3244  0.2733 -0.3103
  462SOL    HW1 1567   1.849   3.102   0.097  0.1025  0.1450 -0.5829
  462SOL    HW2 1568   1.704   3.040   0.138 -0.0319  0.6017 -0.3585
  463SOL     OW 1569   2.320   2.026   1.054  0.1780 -0.0686 -0.2388
  463SOL    HW1 1570   2.355   2.119   1.041 -0.0604  0.0905  0.2195
  463SOL    HW2 1571   2.302   2.011   1.152 -2.5476  0.4120 -0.5893
  464SOL     OW 1572   2.380   1.802   2.111  0.0090 -0.3352 -0.1925
  464SOL    HW1 1573   2.346   1.773   2.022 -1.7154 -0.5776  0.4893
  464SOL    HW2 1574   2.331   1.886   2.138  0.9870  0.1062  0.2384
  465SOL     OW 1575   3.548   2.796   2.952  0.4267 -0.4355 -0.3386
  465SOL    HW1 1576   3.464   2.746   2.973  0.7372 -0.9674 -0.3320
  465SOL    HW2 1577   3.578   2.773   2.860  0.4112 -0.0180 -0.4523
  466SOL     OW 1578   1.376   2.463   2.088 -0.4040 -0.2693  0.3873
  466SOL    HW1 1579   1.289   2.487   2.130  0.3403  1.5807  0.9700
  466SOL    HW2 1580   1.389   2.520   2.006 -0.3169 -1.4537 -0.4406
  467SOL     OW 1581   1.448   4.367   2.111  0.3969  0.1561 -0.0161
  467SOL    HW1 1582   1.393   4.396   2.189  0.6350 -0.6007  0.4443
  467SOL    HW2 1583   1.457   4.444   2.047  1.3266  1.2114  1.3300
  468SOL     OW 1584   2.713   3.291   3.884 -0.7780 -0.7208  0.1716
  468SOL    HW1 1585   2.729   3.193   3.875  1.0283 -0.4931  0.6310
  468SOL    HW2 1586   2.773   3.340   3.821 -1.3689  0.1193  0.2384
  469SOL     OW 1587   1.867   0.089   1.337 -0.0940  0.9589 -0.2210
  469SOL    HW1 1588   1.926   0.077   1.257 -0.6085  0.8907 -0.5929
  469SOL    HW2 1589   1.791   0.149   1.314 -1.2710 -0.5113 -0.3477
  470SOL     OW 1590   2.250   1.520   1.292 -0.5273 -0.2410 -0.1974
  470SOL    HW1 1591   2.219   1.561   1.206  2.2150  2.3370 -0.1428
  470SOL    HW2 1592   2.174   1.471   1.334 -2.5233  0.0849 -3.0841
  471SOL     OW 1593   2.954   2.454   0.577 -0.0171 -0.1048  0.2256
  471SOL    HW1 1594   2.859   2.424   0.568  0.3055 -1.0012 -0.3267
  471SOL    HW2 1595   2.956   2.551   0.601 -1.0629  0.1943 -0.8107
  472SOL     OW 1596   3.139   4.343   1.449  0.3659 -0.2637  0.0743
  472SOL    HW1 1597   3.098   4.373   1.535 -1.6459 -0.8504 -0.6229
  472SOL    HW2 1598   3.157   4.423   1.391  2.0420  0.1692  1.0990
  473SOL     OW 1599   2.762   1.415   1.289 -0.2072 -0.3971 -0.3928
  473SOL    HW1 1600   2.826   1.478   1.245  0.0608  0.4565  1.1469
  473SOL    HW2 1601   2.669   1.436   1.258 -0.2478  1.4774  0.7903
  474SOL     OW 1602   3.387   4.830   3.246 -0.1697  0.0369  0.1632
  474SOL    HW1 1603   3.392   4.802   3.342 -0.1474 -1.0482 -0.1450
  474SOL    HW2 1604   3.298   4.874   3.230 -0.3004 -0.0584  0.6098
  475SOL     OW 1605   2.768   4.315   4.197  0.1085 -0.4323 -0.1766
  475SOL    HW1 1606   2.799   4.401   4.157 -1.0069  0.9407  1.7356
  475SOL    HW2 1607   2.765   4.245   4.126  0.5526  1.2191 -1.9110
  476SOL     OW 1608   2.695   1.978   4.381 -0.6993  0.2895 -0.0488
  476SOL    HW1 1609   2.764   1.907   4.368  0.0795  0.8154  1.1029
  476SOL    HW2 1610   2.636   1.981   4.300  1.5945  0.8900 -1.7955
  477SOL     OW 1611   1.642   2.756   2.366 -0.8055  0.0463  0.7172
  477SOL    HW1 1612   1.554   2.711   2.383 -0.6984 -0.9242 -1.0252
  477SOL    HW2 1613   1.633   2.853   2.387 -2.4571  0.0693  0.1080
  478SOL     OW 1614   2.402   4.537   2.408  0.4683  0.8476  0.1048
  478SOL    HW1 1615   2.439   4.509   2.319 -0.0751 -1.1128  0.4576
  478SOL    HW2 1616   2.475   4.536   2.476  0.3553 -0.2454  0.2183
  479SOL     OW 1617   2.844   4.345   1.104  0.0139  0.3625  0.3786
  479SOL    HW1 1618   2.754   4.301   1.100  0.6804 -1.4377  2.5923
  479SOL    HW2 1619   2.912   4.286   1.060  0.3600  0.9891  0.0554
  480SOL     OW 1620   2.570   2.741   0.449  0.3355 -0.4809  0.2826
  480SOL    HW1 1621   2.643   2.682   0.415  0.3639 -0.4928  0.3640
  480SOL    HW2 1622   2.494   2.685   0.480  0.1657 -0.4569 -0.0917
  481SOL     OW 1623   3.928   2.975   2.430 -0.5318 -0.3428 -0.0050
  481SOL    HW1 1624   3.954   2.954   2.336 -2.1968 -0.8181 -0.3765
  481SOL    HW2 1625   3.854   2.914   2.458 -0.8275  0.5652  1.2340
  482SOL     OW 1626   2.936   1.442   1.664 -0.5897  0.4940 -0.1509
  482SOL    HW1 1627   3.023   1.492   1.661  0.2867 -0.9662 -0.2268
  482SOL    HW2 1628   2.896   1.452   1.755  1.5548 -1.7903  1.1737
  483SOL     OW 1629   3.367   1.631   2.245  0.2443  0.4213 -0.2220
  483SOL    HW1 1630   3.430   1.683   2.188 -0.6213  0.0280 -1.5734
  483SOL    HW2 1631   3.368   1.535   2.216 -0.7425  0.3495 -0.0540
  484SOL     OW 1632   3.278   1.946   4.735  0.2083  0.7908  0.0180
  484SOL    HW1 1633   3.332   1.948   4.819  0.6843  1.9489 -0.3006
  484SOL    HW2 1634   3.297   2.028   4.681  0.2583 -0.1427 -1.4459
  485SOL     OW 1635   2.201   2.795   4.195 -0.4897  0.7463 -0.1689
  485SOL    HW1 1636   2.139   2.786   4.273 -0.3667  0.9950 -0.0407
  485SOL    HW2 1637   2.284   2.742   4.212 -0.2760  1.1435  0.0649
  486SOL     OW 1638   3.653   1.891   2.562  0.1310  0.0291 -0.2010
  486SOL    HW1 1639   3.705   1.890   2.476  0.2363 -1.0638 -0.1365
  486SOL    HW2 1640   3.579   1.825   2.556 -0.0684  0.1895  0.4398
  487SOL     OW 1641   2.094   1.770   2.898 -0.1589  0.7677 -0.0993
  487SOL    HW1 1642   2.167   1.760   2.966 -0.9093  1.5890  0.8684
  487SOL    HW2 1643   2.025   1.700   2.914 -0.2941  0.9079 -0.0672
  488SOL     OW 1644   1.800   2.740   2.928 -0.0112 -0.0963  0.3772
  488SOL    HW1 1645   1.757   2.791   3.003  0.5251  1.2592 -0.2064
  488SOL    HW2 1646   1.900   2.748   2.935  0.1109 -1.4453  0.5084
  489SOL     OW 1647   1.649   3.815   3.747  0.0006 -0.0894 -0.5785
  489SOL    HW1 1648   1.554   3.844   3.759  0.0790  0.2113 -0.6880
  489SOL    HW2 1649   1.699   3.886   3.698  0.5172  0.1627  0.2931
  490SOL     OW 1650   2.749   0.179   3.634  0.2605 -0.1973 -0.1239
  490SOL    HW1 1651   2.817   0.201   3.705  1.8236 -0.8071 -1.3689
  490SOL    HW2 1652   2.750   0.251   3.565  1.1256 -1.1597 -1.1670
  491SOL     OW 1653   2.185   4.293   3.896 -0.5101  0.4173 -0.4565
  491SOL    HW1 1654   2.178   4.364   3.826 -0.5240 -0.0987 -0.9845
  491SOL    HW2 1655   2.149   4.207   3.860  1.8672 -0.5362 -0.7331
  492SOL     OW 1656   3.480   0.286   3.495 -0.6846 -0.0500  0.3739
  492SOL    HW1 1657   3.576   0.275   3.519 -1.1832 -1.2870  2.0156
  492SOL    HW2 1658   3.456   0.383   3.496  0.8511  0.4035 -1.5172
  493SOL     OW 1659   2.567   1.631   4.946 -0.6169 -0.3288  1.0118
  493SOL    HW1 1660   2.628   1.684   4.887  0.4694 -0.1539  2.2537
  493SOL    HW2 1661   2.473   1.644   4.916 -0.0493 -0.8208 -1.1160
  494SOL     OW 1662   2.584   4.231   0.509 -0.5940  0.0393 -0.3883
  494SOL    HW1 1663   2.637   4.151   0.483 -0.2518  0.5297 -1.2473
  494SOL    HW2 1664   2.591   4.300   0.437 -1.4090  0.5894  0.0406
  495SOL     OW 1665   2.358   3.966   0.796 -0.1123 -0.2876 -0.2152
  495SOL    HW1 1666   2.339   4.024   0.876  2.5698 -0.7070  0.8388
  495SOL    HW2 1667   2.334   4.016   0.713  2.7682  2.8306  0.5939
  496SOL     OW 1668   2.129   0.849   3.976  0.6532  0.0769 -0.1308
  496SOL    HW1 1669   2.174   0.901   4.048  0.0855  0.8484 -0.3225
  496SOL    HW2 1670   2.160   0.882   3.887 -1.3726  1.6813 -0.3112
  497SOL     OW 1671   1.868   4.387   3.030 -0.5428 -0.3770  0.8022
  497SOL    HW1 1672   1.922   4.314   3.071 -0.0347 -0.2076  0.4408
  497SOL    HW2 1673   1.825   4.353   2.946  0.3127 -0.0543  0.2152
  498SOL     OW 1674   3.207   4.089   3.197  0.1862 -0.0815  0.1836
  498SOL    HW1 1675   3.195   4.140   3.112 -0.9664 -1.2142 -0.3736
  498SOL    HW2 1676   3.261   4.006   3.179 -2.2848 -1.7396 -0.1040
  499SOL     OW 1677   1.686   2.291   4.229  0.1380  0.1267 -0.5431
  499SOL    HW1 1678   1.757   2.227   4.200  1.1168  1.2763 -0.7653
  499SOL    HW2 1679   1.687   2.370   4.169 -0.6577  0.6132  0.0721
  500SOL     OW 1680   3.418   2.698   4.868  0.1187  0.1210 -0.4280
  500SOL    HW1 1681   3.516   2.695   4.886  0.0796  0.4184 -0.1466
  500SOL    HW2 1682   3.385   2.606   4.849  0.5763  0.1098 -1.2043
  501SOL     OW 1683   2.654   2.440   0.591 -0.1485 -0.0869  0.1601
  501SOL    HW1 1684   2.570   2.491   0.611 -0.2998 -0.1899 -0.1961
  501SOL    HW2 1685   2.648   2.349   0.631 -1.1728 -0.9100 -1.7001
  502SOL     OW 1686   3.334   4.528   2.672 -0.5414  0.0690  0.2535
  502SOL    HW1 1687   3.386   4.449   2.638  1.0302 -0.4104  3.4003
  502SOL    HW2 1688   3.295   4.505   2.761 -0.2448  2.7285  1.1622
  503SOL     OW 1689   2.582   1.154   1.367  0.0241 -0.3842 -0.4096
  503SOL    HW1 1690   2.490   1.164   1.330  0.7282  2.0417 -1.6841
  503SOL    HW2 1691   2.649   1.182   1.299  1.6008  0.0237  1.2193
  504SOL     OW 1692   3.311   1.968   0.055  0.2429  0.2836  0.2317
  504SOL    HW1 1693   3.340   1.944   0.147  0.9117  0.3588  0.0460
  504SOL    HW2 1694   3.262   1.890   0.015  0.0116  0.2265  0.6213
  505SOL     OW 1695   1.894   3.555   0.001  0.3591 -0.2787 -0.0697
  505SOL    HW1 1696   1.807   3.602   0.008  1.2042  1.1575  1.3233
  505SOL    HW2 1697   1.964   3.618  -0.032  1.1034 -1.1021 -0.1315
  506SOL     OW 1698   2.840   1.234   4.316  0.0999  0.2581 -0.0234
  506SOL    HW1 1699   2.883   1.306   4.370 -0.0147 -0.0042  0.4213
  506SOL    HW2 1700   2.788   1.174   4.377 -0.5560  0.3290 -0.4991
  507SOL     OW 1701   1.996   3.830   0.681  0.2719 -0.0592 -0.0197
  507SOL    HW1 1702   2.008   3.925   0.707  0.1170 -0.2294  0.6854
  507SOL    HW2 1703   1.899   3.812   0.665  0.0213 -0.5848  1.8448
  508SOL     OW 1704   3.154   0.375   3.148 -0.1201  0.1126 -0.1541
  508SOL    HW1 1705   3.168   0.321   3.232  0.8593 -0.6912 -0.8140
  508SOL    HW2 1706   3.238   0.423   3.126 -0.6782  1.1042 -0.1519
  509SOL     OW 1707   1.729   3.592   0.832 -0.0730  0.2502  0.0227
  509SOL    HW1 1708   1.740   3.686   0.801  3.3642  0.5404  1.7191
  509SOL    HW2 1709   1.764   3.530   0.762 -0.1475  0.3719 -0.1232
  510SOL     OW 1710   2.472   3.476   2.755 -0.1523 -0.2680  0.1602
  510SOL    HW1 1711   2.481   3.537   2.676  1.7278  0.7798  1.1096
  510SOL    HW2 1712   2.562   3.465   2.798 -0.8017 -2.2548  1.1185
  511SOL     OW 1713   2.125   0.121   2.304  0.2314  0.7077 -0.1416
  511SOL    HW1 1714   2.034   0.148   2.335 -0.2361  1.4885 -2.0616
  511SOL    HW2 1715   2.189   0.127   2.380 -0.7521  2.9296  0.5778
  512SOL     OW 1716   1.560   3.707   2.536  0.6683 -0.3022 -0.4534
  512SOL    HW1 1717   1.488   3.637   2.538  1.4390 -1.1477 -1.3938
  512SOL    HW2 1718   1.627   3.687   2.607  0.3041  0.1440  0.0253
  513SOL     OW 1719   3.528   3.812   2.724  0.1814  0.0229 -0.2541
  513SOL    HW1 1720   3.537   3.719   2.686 -3.7053 -0.8675  0.5198
  513SOL    HW2 1721   3.572   3.815   2.813 -0.7375 -1.5960  0.3184
  514SOL     OW 1722   1.872   1.309   3.424 -0.2969 -0.1428  0.3467
  514SOL    HW1 1723   1.969   1.330   3.427 -0.1038 -0.8647 -0.4414
  514SOL    HW2 1724   1.839   1.295   3.518  0.0831  1.2145  0.7089
  515SOL     OW 1725   1.894   1.655   4.748  0.1147  0.0953 -0.6410
  515SOL    HW1 1726   1.970   1.603   4.789  1.4573  3.1004  1.0132
  515SOL    HW2 1727   1.827   1.676   4.819 -0.6176  0.2447 -1.3724
  516SOL     OW 1728   2.498   3.110   2.486 -0.5518 -0.4429 -0.6501
  516SOL    HW1 1729   2.449   3.186   2.442  0.7738  0.4700 -0.6103
  516SOL    HW2 1730   2.578   3.146   2.533 -1.8904 -1.3362  2.6166
  517SOL     OW 1731   2.311   4.348   3.298 -0.6818 -0.1411 -0.0325
  517SOL    HW1 1732   2.363   4.269   3.265  1.0950  1.2274 -0.6785
  517SOL    HW2 1733   2.265   4.391   3.221  1.4907  1.6357 -0.4356
  518SOL     OW 1734   2.891   3.905   3.482 -0.2466 -0.3304 -0.8001
  518SOL    HW1 1735   2.907   3.806   3.488 -0.4880 -0.2925  1.2300
  518SOL    HW2 1736   2.978   3.953   3.492 -0.3660 -0.3302  0.4982
  519SOL     OW 1737   1.707   4.123   4.146 -0.3268  0.4103 -1.0138
  519SOL    HW1 1738   1.721   4.196   4.212 -0.0667  0.8144 -1.5095
  519SOL    HW2 1739   1.711   4.035   4.194 -2.4569  0.7412 -0.1080
  520SOL     OW 1740   2.728   3.595   1.101  0.4432 -0.3171 -0.5363
  520SOL    HW1 1741   2.740   3.527   1.173 -2.4425  0.7669  1.1339
  520SOL    HW2 1742   2.780   3.677   1.125 -0.4426  0.0109  0.3598
  521SOL     OW 1743   2.223   0.512   0.421  0.2574 -0.2708 -0.0227
  521SOL    HW1 1744   2.272   0.475   0.342  1.3228 -0.3037  0.6372
  521SOL    HW2 1745   2.236   0.611   0.425 -0.3113 -0.1869 -0.2394
  522SOL     OW 1746   3.079   2.212   1.702  0.3496  0.2652  0.4991
  522SOL    HW1 1747   3.161   2.206   1.647  0.6384  0.8115  0.8663
  522SOL    HW2 1748   3.096   2.270   1.781 -0.9646  2.0569 -0.4600
  523SOL     OW 1749   2.306   2.477   3.820  0.5235 -0.0910 -0.1600
  523SOL    HW1 1750   2.227   2.424   3.851  0.6544  0.0398  0.4094
  523SOL    HW2 1751   2.321   2.554   3.882  0.9599  0.0218 -0.3970
  524SOL     OW 1752   3.340   1.961   2.365 -0.7296 -0.0409  0.1800
  524SOL    HW1 1753   3.418   1.902   2.387 -0.6578 -0.1895 -0.4520
  524SOL    HW2 1754   3.292   1.985   2.449  0.0056  0.0612  0.5765
  525SOL     OW 1755   2.047   2.443   2.189  0.1574 -0.0375 -0.2019
  525SOL    HW1 1756   2.051   2.403   2.281  0.0100  2.2690  0.8858
  525SOL    HW2 1757   1.956   2.426   2.150  0.5715 -1.9731 -0.4307
  526SOL     OW 1758   2.330   3.513   0.716  0.1960 -0.5819  0.1780
  526SOL    HW1 1759   2.371   3.422   0.724 -0.1169 -0.9815 -2.0611
  526SOL    HW2 1760   2.248   3.507   0.659  0.4442  1.1603 -0.4166
  527SOL     OW 1761   1.170   2.251   2.535  0.6030  0.1454  0.5066
  527SOL    HW1 1762   1.270   2.252   2.544  0.4974 -0.0557  1.9129
  527SOL    HW2 1763   1.140   2.161   2.505  0.9731  0.8321 -2.1777
  528SOL     OW 1764   3.261   3.192   0.171  0.1954 -0.1326 -0.6997
  528SOL    HW1 1765   3.249   3.123   0.242 -0.4368  0.7337  0.0526
  528SOL    HW2 1766   3.250   3.283   0.211  0.2478  0.3866 -1.8277
  529SOL     OW 1767   2.826   1.767   0.756  0.1524 -0.2485 -0.0010
  529SOL    HW1 1768   2.728   1.769   0.776  0.2621  2.3512  0.6833
  529SOL    HW2 1769   2.841   1.724   0.667 -1.5121 -1.2888  0.1758
  530SOL     OW 1770   2.053   3.939   3.517 -0.3898  0.2133  0.8103
  530SOL    HW1 1771   2.149   3.911   3.520  0.1114  1.8160  0.6572
  530SOL    HW2 1772   2.029   3.965   3.423 -0.6964  0.7124  1.0233
  531SOL     OW 1773   2.048   0.756   1.074  0.0290  0.1411 -0.1729
  531SOL    HW1 1774   2.147   0.771   1.067  0.5660 -2.8587 -0.0728
  531SOL    HW2 1775   2.019   0.694   1.001 -1.5322 -0.0845  0.6056
  532SOL     OW 1776   2.620   0.546   0.898 -0.2553  0.2932  0.2374
  532SOL    HW1 1777   2.606   0.612   0.824 -1.4962 -0.5132 -0.2654
  532SOL    HW2 1778   2.533   0.505   0.923  0.3456 -0.4156  1.2531
  533SOL     OW 1779   1.283   1.816   1.340  0.0912 -0.3191 -0.0628
  533SOL    HW1 1780   1.306   1.729   1.296 -0.1945  0.1300 -1.1356
  533SOL    HW2 1781   1.283   1.889   1.271  0.6683  0.6026  0.8693
  534SOL     OW 1782   1.240   3.166   2.748  0.0216  0.5136  0.3109
  534SOL    HW1 1783   1.334   3.157   2.782  0.6415  0.8219 -1.2263
  534SOL    HW2 1784   1.218   3.263   2.737  0.0294  0.4235 -0.6073
  535SOL     OW 1785   3.384   3.001   4.520  0.1454 -0.2217  0.2293
  535SOL    HW1 1786   3.393   3.099   4.538 -2.2108  0.1190 -0.1027
  535SOL    HW2 1787   3.392   2.985   4.422 -0.9890 -0.0984  0.0935
  536SOL     OW 1788   2.071   0.381   1.361 -0.3029 -0.2106 -0.9136
  536SOL    HW1 1789   2.036   0.466   1.321  0.1285  0.3054 -0.2341
  536SOL    HW2 1790   2.147   0.403   1.423  0.8621 -1.2373 -1.9166
  537SOL     OW 1791   2.637   2.216   4.046  0.0635 -0.3367  0.0787
  537SOL    HW1 1792   2.623   2.301   3.996 -1.3671  0.4996  1.7991
  537SOL    HW2 1793   2.735   2.199   4.056  0.3739  0.3080 -1.5253
  538SOL     OW 1794   2.477   0.810   1.345 -0.2025  0.7091 -0.1040
  538SOL    HW1 1795   2.534   0.828   1.425 -0.2560  5.0146 -0.8150
  538SOL    HW2 1796   2.498   0.718   1.310  3.3534  0.5297  1.9939
  539SOL     OW 1797   3.099   4.299   3.343 -0.1791 -0.0783  0.1349
  539SOL    HW1 1798   3.171   4.368   3.346  0.1910 -0.4915  1.1676
  539SOL    HW2 1799   3.140   4.210   3.323 -0.5895 -0.0917 -0.6773
  540SOL     OW 1800   3.476   1.694   3.024 -0.1243 -0.0653 -0.6070
  540SOL    HW1 1801   3.462   1.706   2.926  1.9155 -0.8420 -1.0473
  540SOL    HW2 1802   3.434   1.608   3.053 -1.4169  0.5406 -0.6003
  541SOL     OW 1803   2.942   3.161   4.037  0.4641 -0.1943 -0.0321
  541SOL    HW1 1804   2.881   3.173   4.115  0.4984  2.0892 -0.2866
  541SOL    HW2 1805   2.889   3.126   3.959  0.0859 -0.8938  0.5310
  542SOL     OW 1806   2.403   4.275   2.650  0.0187 -0.0081 -0.1822
  542SOL    HW1 1807   2.460   4.317   2.721 -1.6011  0.8172  0.6612
  542SOL    HW2 1808   2.321   4.330   2.636 -0.6346 -1.2110 -1.3244
  543SOL     OW 1809   2.497   3.601   4.004  0.4259  0.2123  0.3924
  543SOL    HW1 1810   2.563   3.661   3.959 -1.9243  1.8172 -1.1326
  543SOL    HW2 1811   2.462   3.535   3.938 -2.2979  1.9257 -0.0451
  544SOL     OW 1812   2.553   1.714   0.747  0.0188 -0.2130 -0.0221
  544SOL    HW1 1813   2.517   1.779   0.679  1.0264 -0.1238 -0.4881
  544SOL    HW2 1814   2.495   1.716   0.828 -0.2732  0.8831 -0.2395
  545SOL     OW 1815   3.457   3.171   3.559 -0.4374  0.3882 -0.6352
  545SOL    HW1 1816   3.482   3.077   3.535  0.3649  0.0513  1.3211
  545SOL    HW2 1817   3.426   3.219   3.477  1.1657 -0.9325 -2.0766
  546SOL     OW 1818   2.170   1.626   3.331 -0.0997 -0.5042 -0.0457
  546SOL    HW1 1819   2.148   1.721   3.353  0.5239  0.1095 -1.8592
  546SOL    HW2 1820   2.100   1.590   3.269  0.4832 -0.7064 -0.5970
  547SOL     OW 1821   2.312   4.131   0.571 -0.4384  0.3694  0.6013
  547SOL    HW1 1822   2.404   4.164   0.550  1.0285 -2.2710  2.1693
  547SOL    HW2 1823   2.285   4.064   0.502 -0.1660 -0.5048  1.3174
  548SOL     OW 1824   2.102   3.421   1.795 -0.7672 -0.1159 -0.4379
  548SOL    HW1 1825   2.067   3.369   1.873  1.6126 -0.1405  0.7123
  548SOL    HW2 1826   2.187   3.380   1.763 -0.1597  1.5887 -1.1471
  549SOL     OW 1827   2.254   2.260   2.861 -0.4256  0.0931  0.0029
  549SOL    HW1 1828   2.191   2.322   2.816  0.3907 -0.2769 -1.7115
  549SOL    HW2 1829   2.244   2.168   2.822 -1.3876 -0.8667  2.2607
  550SOL     OW 1830   2.954   0.797   0.554  0.5664 -0.1328 -0.2709
  550SOL    HW1 1831   2.882   0.866   0.563 -0.3484 -1.0638 -0.2123
  550SOL    HW2 1832   2.963   0.748   0.641  0.9732 -0.3016 -0.4058
  551SOL     OW 1833   3.061   3.212   1.831  0.3518 -0.0436  0.0454
  551SOL    HW1 1834   3.140   3.234   1.887  1.0515 -1.9468 -0.1184
  551SOL    HW2 1835   3.000   3.151   1.882  0.2885 -0.6593 -0.7366
  552SOL     OW 1836   1.790   4.437   0.930  0.5364  0.1959  0.2046
  552SOL    HW1 1837   1.797   4.366   0.860 -0.0095 -0.7933  1.1310
  552SOL    HW2 1838   1.734   4.404   1.006  0.2188  1.6416  0.6406
  553SOL     OW 1839   2.469   2.409   3.475 -0.6843 -0.4832 -0.2186
  553SOL    HW1 1840   2.397   2.347   3.447 -1.7970  0.4381  0.4924
  553SOL    HW2 1841   2.429   2.483   3.530  0.5797  0.8677 -1.0403
  554SOL     OW 1842   2.851   4.801   2.061  0.0849  0.3154 -0.0311
  554SOL    HW1 1843   2.899   4.857   1.993  0.9510 -0.5869 -0.1750
  554SOL    HW2 1844   2.900   4.716   2.075 -0.9694 -0.2250  0.5377
  555SOL     OW 1845   2.793   0.200   4.110  0.3816 -0.1331  0.2547
  555SOL    HW1 1846   2.856   0.206   4.187  0.4995 -0.2180  0.1653
  555SOL    HW2 1847   2.774   0.293   4.076 -0.3885 -0.0201  0.9610
  556SOL     OW 1848   2.850   3.495   3.759 -0.6279  0.1047 -0.0238
  556SOL    HW1 1849   2.788   3.572   3.773  0.8825  1.2752  0.5712
  556SOL    HW2 1850   2.891   3.470   3.847 -1.4087 -1.6913 -0.1390
  557SOL     OW 1851   1.504   4.525   1.902  0.3094 -0.1092 -0.2434
  557SOL    HW1 1852   1.562   4.580   1.843 -1.0857  1.4345 -0.2452
  557SOL    HW2 1853   1.444   4.467   1.846 -0.5206  0.8363 -0.3651
  558SOL     OW 1854   3.400   4.139   4.317 -0.0413  0.3636  0.6192
  558SOL    HW1 1855   3.417   4.144   4.415  0.6787  0.7793  0.4768
  558SOL    HW2 1856   3.476   4.092   4.273  0.5987  1.8920  0.0288
  559SOL     OW 1857   2.822   1.860   3.246 -0.1290 -0.4791 -0.3126
  559SOL    HW1 1858   2.916   1.887   3.266 -0.3310 -0.6845  0.9852
  559SOL    HW2 1859   2.778   1.932   3.192  1.1847 -1.0172 -2.2022
  560SOL     OW 1860   1.755   1.536   1.751  0.2927  0.0792  0.5102
  560SOL    HW1 1861   1.703   1.476   1.690 -0.6335  2.6202 -1.3924
  560SOL    HW2 1862   1.738   1.509   1.845 -1.3098 -1.6648 -0.2032
  561SOL     OW 1863   2.411   4.937   1.823 -0.6979 -0.4824  0.4329
  561SOL    HW1 1864   2.413   5.037   1.823 -0.5698 -0.4842  0.4244
  561SOL    HW2 1865   2.456   4.903   1.907 -0.0819 -0.5403  0.0899
  562SOL     OW 1866   2.705   1.028   4.972 -0.6276  0.0178 -0.1209
  562SOL    HW1 1867   2.617   1.039   4.925 -0.9550 -0.3238  0.3999
  562SOL    HW2 1868   2.777   1.015   4.905 -1.0704 -0.3177 -0.5311
  563SOL     OW 1869   1.903   3.175   4.264 -0.2507 -0.4175 -0.8759
  563SOL    HW1 1870   1.999   3.147   4.274  0.0733  1.3374  1.8873
  563SOL    HW2 1871   1.849   3.134   4.337 -1.6343 -1.2027 -2.2718
  564SOL     OW 1872   3.350   1.906   3.179 -0.1256 -0.3328  0.2532
  564SOL    HW1 1873   3.360   2.002   3.152 -0.1092 -0.0745  1.1572
  564SOL    HW2 1874   3.400   1.848   3.114  1.1819  0.3877  0.5868
  565SOL     OW 1875   1.659   0.711   3.078 -0.3056  0.2850 -0.0564
  565SOL    HW1 1876   1.739   0.694   3.135 -0.7435  0.6581  0.6821
  565SOL    HW2 1877   1.662   0.651   2.999 -1.0004 -2.1319  1.6494
  566SOL     OW 1878   3.351   1.113   3.354 -0.7925  0.0320  0.2942
  566SOL    HW1 1879   3.381   1.197   3.399 -0.3249 -1.5397  3.2438
  566SOL    HW2 1880   3.429   1.070   3.310  0.0298 -0.8846  2.4818
  567SOL     OW 1881   2.729   2.636   1.430 -0.0289  0.3978 -0.0662
  567SOL    HW1 1882   2.776   2.720   1.401 -0.0389  0.0750 -1.0658
  567SOL    HW2 1883   2.684   2.652   1.517  1.8277  0.7648  0.8767
  568SOL     OW 1884   2.722   0.969   0.576 -0.5072 -0.1752 -0.2304
  568SOL    HW1 1885   2.760   1.027   0.647 -2.2379  0.8774 -0.1327
  568SOL    HW2 1886   2.680   0.888   0.618 -0.3292 -0.2468 -0.1854
  569SOL     OW 1887   1.890   3.723   4.035  0.0957  0.1435  0.0103
  569SOL    HW1 1888   1.909   3.645   4.094 -0.0197  0.0353 -0.0925
  569SOL    HW2 1889   1.832   3.693   3.959 -1.2274  0.6406  0.7963
  570SOL     OW 1890   1.862   1.609   4.160 -0.4658  0.4120  0.1190
  570SOL    HW1 1891   1.940   1.671   4.157  0.5871 -0.6886  2.6846
  570SOL    HW2 1892   1.802   1.635   4.235 -1.2238 -0.3217 -0.2212
  571SOL     OW 1893   2.864   3.853   4.603 -0.2651 -0.2264  0.0829
  571SOL    HW1 1894   2.786   3.892   4.555  0.0121  0.9136  0.5300
  571SOL    HW2 1895   2.945   3.860   4.544  0.1727  1.5911  0.8450
  572SOL     OW 1896   2.328   4.152   0.995 -0.2136 -0.4251 -0.0247
  572SOL    HW1 1897   2.324   4.128   1.092  1.4568 -0.4393  0.0818
  572SOL    HW2 1898   2.401   4.220   0.982  0.0555 -0.9542 -1.3660
  573SOL     OW 1899   3.269   4.612   2.205  0.3441 -0.7057  0.2107
  573SOL    HW1 1900   3.227   4.521   2.202  0.8069 -0.9493  0.8266
  573SOL    HW2 1901   3.227   4.664   2.279  0.6896 -0.7327  0.4285
  574SOL     OW 1902   2.948   3.581   3.227 -0.6253 -0.1765  0.1080
  574SOL    HW1 1903   2.919   3.588   3.323 -1.1310 -0.4885 -0.0211
  574SOL    HW2 1904   2.900   3.505   3.183 -1.1724  0.5951 -0.6675
  575SOL     OW 1905   2.572   2.144   4.587  0.2794  0.6072 -0.1067
  575SOL    HW1 1906   2.613   2.056   4.562 -0.5979 -0.1629  1.0118
  575SOL    HW2 1907   2.497   2.164   4.524  1.2418  1.1790 -1.1069
  576SOL     OW 1908   1.596   3.279   3.898 -0.2975 -0.7511  0.4935
  576SOL    HW1 1909   1.696   3.284   3.892 -0.4117  1.0643 -0.7268
  576SOL    HW2 1910   1.564   3.340   3.970 -0.5450 -1.2558  0.8186
  577SOL     OW 1911   3.081   0.314   3.611  0.1397 -0.5276  0.2191
  577SOL    HW1 1912   3.041   0.315   3.703 -0.0177 -0.1196  0.1498
  577SOL    HW2 1913   3.084   0.407   3.576  2.9715 -0.2434  0.9781
  578SOL     OW 1914   2.083   0.149   3.390 -0.2027  0.3528  0.4147
  578SOL    HW1 1915   2.118   0.200   3.469  1.5426 -0.9816  0.5541
  578SOL    HW2 1916   2.156   0.092   3.352 -0.9815  0.9857 -2.2364
  579SOL     OW 1917   2.601   4.629   3.105  0.5323  0.5576  0.2362
  579SOL    HW1 1918   2.659   4.623   3.024  1.5867  0.3127  0.9937
  579SOL    HW2 1919   2.505   4.623   3.077  0.8310  1.5861 -1.0985
  580SOL     OW 1920   3.551   0.471   2.272  0.0016 -0.1390 -0.5123
  580SOL    HW1 1921   3.504   0.437   2.191 -0.4172 -0.3091 -0.1991
  580SOL    HW2 1922   3.573   0.568   2.260 -0.4746 -0.0469 -0.6372
  581SOL     OW 1923   3.704   3.755   1.386 -0.6554 -0.5289 -0.6290
  581SOL    HW1 1924   3.749   3.723   1.303  1.8933 -0.3199  0.5561
  581SOL    HW2 1925   3.765   3.818   1.434 -2.2885 -0.1681  1.1136
  582SOL     OW 1926   1.923   0.379   1.098 -0.5407  0.2674 -0.1218
  582SOL    HW1 1927   1.846   0.326   1.133  0.0987 -0.8804 -0.3975
  582SOL    HW2 1928   2.002   0.366   1.159 -0.3819  0.9592 -0.1643
  583SOL     OW 1929   1.958   2.770   2.629  0.2869  0.0093 -0.4525
  583SOL    HW1 1930   1.942   2.855   2.679  0.6298 -1.5814  2.5987
  583SOL    HW2 1931   1.873   2.718   2.624  0.6577 -0.6679  0.1449
  584SOL     OW 1932   2.883   3.641   3.486  0.1616 -0.4744  0.2126
  584SOL    HW1 1933   2.784   3.635   3.471  0.0141  0.9512  0.5308
  584SOL    HW2 1934   2.904   3.609   3.578  0.1437 -1.7735 -0.2093
  585SOL     OW 1935   2.980   0.770   3.273 -0.4647 -0.8933  0.3492
  585SOL    HW1 1936   2.999   0.782   3.176  0.5687 -1.8889  0.4049
  585SOL    HW2 1937   2.883   0.787   3.291 -0.4037  0.6258 -0.6181
  586SOL     OW 1938   1.562   1.003   1.852 -0.0752  0.0977  0.4217
  586SOL    HW1 1939   1.609   0.927   1.897 -0.9683 -0.9833 -0.3782
  586SOL    HW2 1940   1.469   1.011   1.889 -0.3607  0.0696 -0.2557
  587SOL     OW 1941   2.366   2.129   0.539  0.1962 -0.3120  0.1461
  587SOL    HW1 1942   2.364   2.220   0.498 -1.4095 -0.7713 -0.8881
  587SOL    HW2 1943   2.306   2.128   0.619  1.5286 -0.0376  1.1780
  588SOL     OW 1944   3.072   1.918   0.834  0.1938 -0.0967  1.0903
  588SOL    HW1 1945   3.132   1.841   0.855  1.4855  0.8845  1.1523
  588SOL    HW2 1946   2.977   1.887   0.832  0.6654 -1.6205  1.3637
  589SOL     OW 1947   1.936   4.113   1.114 -0.4093 -0.4825 -0.5257
  589SOL    HW1 1948   1.969   4.181   1.180  0.3511 -0.2739 -1.0935
  589SOL    HW2 1949   1.986   4.028   1.126 -0.0439 -0.3469 -1.0167
  590SOL     OW 1950   2.101   4.402   4.505  0.4293  0.0101  0.0200
  590SOL    HW1 1951   2.123   4.453   4.422  1.2871 -1.4942 -0.7068
  590SOL    HW2 1952   2.112   4.462   4.584  0.3413  1.2477 -0.8830
  591SOL     OW 1953   1.556   3.434   3.389 -0.4230  0.1485  0.1428
  591SOL    HW1 1954   1.581   3.515   3.442 -1.4639  0.3085  0.4235
  591SOL    HW2 1955   1.510   3.463   3.305  0.0288 -0.1368 -0.2064
  592SOL     OW 1956   3.877   3.659   3.148 -0.2421 -0.3741  0.3153
  592SOL    HW1 1957   3.851   3.573   3.191  0.8136 -0.4888  0.7663
  592SOL    HW2 1958   3.935   3.640   3.069 -0.0941 -0.0879  0.3541
  593SOL     OW 1959   1.570   4.560   2.471  0.2062 -0.1656 -0.3724
  593SOL    HW1 1960   1.558   4.462   2.482 -0.5364 -0.0582 -0.1607
  593SOL    HW2 1961   1.617   4.597   2.551  4.8879 -1.0317 -2.4391
  594SOL     OW 1962   2.015   4.908   3.579  0.0294 -0.3627  0.2165
  594SOL    HW1 1963   2.006   4.982   3.512 -0.0062 -1.0796 -0.5945
  594SOL    HW2 1964   2.110   4.876   3.578  0.5079  0.9021  1.9201
  595SOL     OW 1965   2.179   3.289   4.618  0.4534  0.4222 -0.2639
  595SOL    HW1 1966   2.238   3.209   4.615  0.1699  0.1902  0.2110
  595SOL    HW2 1967   2.090   3.266   4.578  0.5487  0.6510 -0.6062
  596SOL     OW 1968   1.344   2.282   3.240  0.1563  0.6668 -0.1626
  596SOL    HW1 1969   1.334   2.328   3.152  1.0344  0.5082 -0.3491
  596SOL    HW2 1970   1.362   2.350   3.311  4.2549  0.5201 -0.8525
  597SOL     OW 1971   2.125   2.171   1.710  0.3416  0.1860  0.0794
  597SOL    HW1 1972   2.133   2.244   1.778  0.4754 -1.8797  2.4114
  597SOL    HW2 1973   2.212   2.124   1.701 -0.1618 -0.7358 -0.1211
  598SOL     OW 1974   2.487   4.555   4.186  0.7205  0.3617 -0.1473
  598SOL    HW1 1975   2.435   4.513   4.112 -2.3545  0.8093  1.5805
  598SOL    HW2 1976   2.514   4.485   4.252  1.1750  0.3088 -0.3842
  599SOL     OW 1977   1.214   1.438   1.488  0.0909  0.4374  0.1618
  599SOL    HW1 1978   1.261   1.474   1.407  2.6518 -0.9576  0.9191
  599SOL    HW2 1979   1.276   1.377   1.537 -2.1559 -0.4932  1.9979
  600SOL     OW 1980   1.628   3.250   2.557  0.0950  0.0599 -0.0464
  600SOL    HW1 1981   1.565   3.325   2.574 -0.3604 -0.3455  0.0625
  600SOL    HW2 1982   1.709   3.262   2.614 -0.0842  0.3347  0.1536
  601SOL     OW 1983   1.615   3.245   3.574  0.3559  0.0596  0.0126
  601SOL    HW1 1984   1.576   3.290   3.655 -1.1654  0.4108 -0.8747
  601SOL    HW2 1985   1.611   3.309   3.497  1.7540 -0.2865 -0.3604
  602SOL     OW 1986   3.038   3.861   4.376  0.3073 -0.5198  0.2848
  602SOL    HW1 1987   3.101   3.798   4.420 -0.5436 -0.4147  1.7238
  602SOL    HW2 1988   3.088   3.942   4.345  1.0638 -0.9688  0.3256
  603SOL     OW 1989   3.045   2.529   1.086 -0.0011 -0.6458  0.7807
  603SOL    HW1 1990   2.949   2.541   1.061 -0.2824 -2.5513  0.7398
  603SOL    HW2 1991   3.090   2.474   1.015  0.0388 -3.2927  2.6962
  604SOL     OW 1992   2.286   1.347   3.797 -0.3476  0.4787  0.1420
  604SOL    HW1 1993   2.262   1.265   3.848  0.4406 -0.1053 -0.3952
  604SOL    HW2 1994   2.374   1.333   3.752 -1.0803  0.9111 -1.5081
  605SOL     OW 1995   2.487   2.889   4.507  0.0714  0.1026 -0.5158
  605SOL    HW1 1996   2.496   2.897   4.408 -0.6905 -2.1799 -0.8297
  605SOL    HW2 1997   2.569   2.846   4.545  0.9676  2.2338  0.0794
  606SOL     OW 1998   1.801   4.338   3.942  0.0776 -0.1018 -0.5248
  606SOL    HW1 1999   1.753   4.381   3.865  1.4265  1.4819 -0.5464
  606SOL    HW2 2000   1.792   4.239   3.936 -0.8514  0.0495 -2.0387
  607SOL     OW 2001   2.505   0.219   1.810 -0.2243  0.3244 -0.0638
  607SOL    HW1 2002   2.549   0.276   1.741  0.6197 -0.2629 -0.0277
  607SOL    HW2 2003   2.415   0.256   1.831  1.0221  2.7672  1.3364
  608SOL     OW 2004   2.588   2.530   4.442  0.0775  0.0186  0.1403
  608SOL    HW1 2005   2.516   2.472   4.480 -1.7328  1.3162 -1.0789
  608SOL    HW2 2006   2.615   2.599   4.509  1.2638 -1.3231  1.1048
  609SOL     OW 2007   2.084   2.010   3.589 -0.5357  0.5371 -1.0214
  609SOL    HW1 2008   2.026   1.990   3.668 -0.8152  1.1936 -1.0557
  609SOL    HW2 2009   2.169   2.052   3.620  0.1747 -0.8885 -0.9259
  610SOL     OW 2010   3.358   3.936   1.669 -0.5305  0.1543  0.0992
  610SOL    HW1 2011   3.403   3.970   1.752  0.7906  0.0055 -0.5268
  610SOL    HW2 2012   3.259   3.946   1.679 -0.3640  0.7228  1.4305
  611SOL     OW 2013   2.995   0.737   1.723 -0.0107  0.1139 -0.9985
  611SOL    HW1 2014   2.935   0.790   1.782 -1.8674 -0.8369 -1.9552
  611SOL    HW2 2015   2.990   0.641   1.750  1.1593  0.0133 -1.0728
  612SOL     OW 2016   1.575   0.752   1.266  0.6790  0.1795  0.3585
  612SOL    HW1 2017   1.532   0.753   1.176  1.9379 -0.4975 -0.2778
  612SOL    HW2 2018   1.654   0.813   1.265  0.6847  0.1906  1.0157
  613SOL     OW 2019   3.115   1.576   1.179  0.0324 -0.1029  0.0991
  613SOL    HW1 2020   3.122   1.553   1.276  2.3288  0.5338  0.1582
  613SOL    HW2 2021   3.021   1.563   1.148 -0.8000 -0.1042  2.4528
  614SOL     OW 2022   2.887   1.156   3.314 -0.0442  0.4458 -0.6354
  614SOL    HW1 2023   2.911   1.101   3.234 -0.2953  0.2509 -0.5756
  614SOL    HW2 2024   2.884   1.252   3.288  0.9708  0.5009 -0.6144
  615SOL     OW 2025   1.891   1.633   1.076 -0.0432  0.1802  0.1574
  615SOL    HW1 2026   1.835   1.675   1.147  2.5220  1.0738  1.7389
  615SOL    HW2 2027   1.874   1.534   1.075 -2.4518  0.5239 -0.2558
  616SOL     OW 2028   2.707   1.819   1.092 -0.2981 -0.3799  0.0217
  616SOL    HW1 2029   2.614   1.789   1.069 -1.0021  0.7758  1.2328
  616SOL    HW2 2030   2.703   1.882   1.169  1.2068  1.8905 -1.6182
  617SOL     OW 2031   2.764   0.228   1.223 -0.1745 -0.8980 -0.2168
  617SOL    HW1 2032   2.746   0.253   1.128 -0.3135 -0.1787 -0.0130
  617SOL    HW2 2033   2.700   0.157   1.251 -0.8843 -0.3153 -0.3298
  618SOL     OW 2034   3.071   4.192   3.672 -0.1898 -0.1944  0.0597
  618SOL    HW1 2035   3.093   4.156   3.581  2.2701  1.6343 -0.1765
  618SOL    HW2 2036   2.972   4.199   3.681 -0.5082  0.3597 -2.8262
  619SOL     OW 2037   3.381   2.370   1.316  0.3512  0.0708 -0.3501
  619SOL    HW1 2038   3.281   2.378   1.318  0.4429  1.2498 -0.2018
  619SOL    HW2 2039   3.405   2.292   1.258 -0.6490 -0.0765 -0.5977
  620SOL     OW 2040   2.604   2.491   2.992 -0.2050 -0.6344 -0.2123
  620SOL    HW1 2041   2.555   2.449   2.915 -1.3256 -0.1093  0.1912
  620SOL    HW2 2042   2.582   2.441   3.076 -1.9021  0.9565  0.3443
  621SOL     OW 2043   1.440   1.930   1.523  0.3684  0.1903  0.2465
  621SOL    HW1 2044   1.444   1.885   1.612 -0.0928 -1.5809 -0.5890
  621SOL    HW2 2045   1.370   1.886   1.468  1.0137  0.9177 -1.1897
  622SOL     OW 2046   1.684   2.945   3.121 -0.3400  0.2464  0.3452
  622SOL    HW1 2047   1.586   2.926   3.123  0.2153 -3.4631  2.1413
  622SOL    HW2 2048   1.724   2.922   3.210  2.3728  0.0488 -0.8209
  623SOL     OW 2049   2.107   0.208   3.791  0.3522 -0.1774 -0.1415
  623SOL    HW1 2050   2.054   0.125   3.773  0.7681 -0.7232  1.0608
  623SOL    HW2 2051   2.154   0.236   3.707 -1.3416 -0.0123 -1.0910
  624SOL     OW 2052   2.620   3.640   4.502  0.9067 -0.2724  0.3699
  624SOL    HW1 2053   2.681   3.685   4.437 -0.0143  0.3760 -0.0722
  624SOL    HW2 2054   2.596   3.705   4.575 -1.1493  0.3380 -0.7501
  625SOL     OW 2055   2.842   3.331   4.607 -0.1373 -0.6920  0.3547
  625SOL    HW1 2056   2.846   3.399   4.533 -0.5229  1.1379  1.9520
  625SOL    HW2 2057   2.904   3.256   4.585  0.2066  0.0845 -1.5421
  626SOL     OW 2058   3.184   3.434   0.257 -0.1455 -0.3872 -0.0472
  626SOL    HW1 2059   3.185   3.531   0.280 -0.1690 -0.3448 -0.2163
  626SOL    HW2 2060   3.131   3.384   0.325  1.5814 -0.5927  1.1892
  627SOL     OW 2061   2.947   4.548   2.066 -0.1040 -0.0438 -0.0181
  627SOL    HW1 2062   2.853   4.517   2.054  0.0294  0.1508 -1.7355
  627SOL    HW2 2063   3.000   4.476   2.112 -0.3453 -1.4891 -1.9071
  628SOL     OW 2064   2.649   1.505   3.907  0.0215  0.2263  0.8997
  628SOL    HW1 2065   2.656   1.471   4.000  0.4016  0.3402  0.9167
  628SOL    HW2 2066   2.622   1.431   3.846 -0.9297  0.3140  1.2057
  629SOL     OW 2067   3.305   3.737   1.172 -0.2537  0.1029  0.0226
  629SOL    HW1 2068   3.323   3.638   1.170  1.5673  0.4074 -1.0068
  629SOL    HW2 2069   3.319   3.771   1.265  0.5303 -0.3932  0.0970
  630SOL     OW 2070   2.188   4.177   4.913 -0.2876  0.3619 -0.1045
  630SOL    HW1 2071   2.246   4.166   4.832  0.4526  1.7215  0.2063
  630SOL    HW2 2072   2.246   4.173   4.995 -0.9966 -0.7520  0.3639
  631SOL     OW 2073   3.532   4.015   0.850 -0.1285  0.2231 -0.0287
  631SOL    HW1 2074   3.569   4.099   0.811  0.3805 -0.5654 -1.3055
  631SOL    HW2 2075   3.445   3.994   0.804 -0.9465  0.7551  1.2353
  632SOL     OW 2076   2.170   3.103   2.899  0.1682  0.5218  0.1196
  632SOL    HW1 2077   2.212   3.172   2.840  1.8465 -1.1619 -0.7643
  632SOL    HW2 2078   2.128   3.032   2.842  0.8092 -0.5489  0.9384
  633SOL     OW 2079   3.080   3.383   2.886 -0.2696  0.0922 -0.4464
  633SOL    HW1 2080   3.127   3.433   2.959 -0.9696  0.7198 -0.4199
  633SOL    HW2 2081   3.143   3.371   2.809  0.2215  0.1159 -0.0535
  634SOL     OW 2082   2.145   4.125   2.146  0.1747  0.5690  0.6779
  634SOL    HW1 2083   2.122   4.223   2.146 -0.1754  0.4962 -0.0379
  634SOL    HW2 2084   2.082   4.077   2.085 -0.9264 -0.4144  2.4866
  635SOL     OW 2085   2.620   2.572   2.312  0.5032  0.7406  0.0016
  635SOL    HW1 2086   2.668   2.636   2.252  0.6022  1.9442  1.3112
  635SOL    HW2 2087   2.534   2.545   2.268  1.4309  0.0891 -1.5017
  636SOL     OW 2088   2.794   3.008   4.416  0.2191  0.1976  0.2825
  636SOL    HW1 2089   2.881   2.964   4.393 -0.5083 -0.3958 -1.5551
  636SOL    HW2 2090   2.721   2.966   4.362 -0.5684  3.5926 -1.5454
  637SOL     OW 2091   3.363   4.573   3.114  0.7177  0.5672  0.0522
  637SOL    HW1 2092   3.427   4.572   3.036  0.4068 -0.5691 -0.2056
  637SOL    HW2 2093   3.351   4.668   3.144  1.9721  0.8854 -0.3434
  638SOL     OW 2094   2.564   3.964   1.148 -0.6721 -0.1281 -0.6846
  638SOL    HW1 2095   2.629   3.936   1.218 -0.8260  2.9399  0.8871
  638SOL    HW2 2096   2.513   3.885   1.116  2.5478 -2.3658 -0.7163
  639SOL     OW 2097   2.670   3.478   0.872 -0.0191  0.1506  0.2893
  639SOL    HW1 2098   2.733   3.501   0.799  1.5648  1.9038  2.0907
  639SOL    HW2 2099   2.700   3.521   0.957 -1.9194 -1.5594  1.9590
  640SOL     OW 2100   2.839   4.212   4.663 -0.3349  0.1587 -0.0260
  640SOL    HW1 2101   2.881   4.218   4.572 -1.9407 -1.9473 -0.9827
  640SOL    HW2 2102   2.890   4.147   4.719 -0.3282  0.1831 -0.0036
  641SOL     OW 2103   3.062   3.683   1.458  0.0917  0.0292  0.3310
  641SOL    HW1 2104   3.027   3.635   1.377 -2.2188 -0.9110  1.8017
  641SOL    HW2 2105   3.158   3.657   1.472  0.4563 -0.0251 -1.8851
  642SOL     OW 2106   3.752   2.506   3.334 -0.3970 -0.2557  0.0989
  642SOL    HW1 2107   3.688   2.575   3.301 -1.0396 -0.0472  1.7225
  642SOL    HW2 2108   3.803   2.469   3.256 -1.5904  0.4681 -1.0658
  643SOL     OW 2109   1.933   0.769   1.554  0.4419 -0.3003 -0.1149
  643SOL    HW1 2110   2.003   0.730   1.614 -0.2656  0.5528  1.3093
  643SOL    HW2 2111   1.884   0.841   1.603 -1.7180 -1.1408 -0.9295
  644SOL     OW 2112   3.386   3.612   2.025 -0.2608  0.1746 -0.0366
  644SOL    HW1 2113   3.352   3.688   2.081 -2.8827 -0.9523  0.0483
  644SOL    HW2 2114   3.423   3.541   2.086 -0.4435  0.1819  0.0847
  645SOL     OW 2115   1.322   3.050   1.887 -0.2197 -0.6556  0.6063
  645SOL    HW1 2116   1.396   3.008   1.834  0.3586 -0.1887  1.0299
  645SOL    HW2 2117   1.285   3.128   1.836  0.5266 -0.0327  0.9954
  646SOL     OW 2118   3.920   3.233   2.525 -0.1912 -0.0486  0.0103
  646SOL    HW1 2119   4.004   3.279   2.496  0.3286 -1.3115 -0.6123
  646SOL    HW2 2120   3.920   3.140   2.487 -2.4681  0.3406 -1.0828
  647SOL     OW 2121   3.546   0.730   1.499  0.3503  0.1300 -0.5802
  647SOL    HW1 2122   3.561   0.644   1.547  0.9799 -0.0959 -1.1592
  647SOL    HW2 2123   3.532   0.711   1.402  1.7903  0.7522 -0.9358
  648SOL     OW 2124   2.323   2.620   3.580 -0.3304 -0.6746  0.6626
  648SOL    HW1 2125   2.309   2.569   3.665 -2.1848  1.5589  1.8155
  648SOL    HW2 2126   2.253   2.592   3.514  0.1122 -1.2770  0.4483
  649SOL     OW 2127   1.770   3.595   3.843 -1.1074  0.2882  0.1264
  649SOL    HW1 2128   1.821   3.556   3.766  0.4168  0.6244  0.9308
  649SOL    HW2 2129   1.713   3.670   3.810 -1.1897 -0.1695 -0.8121
  650SOL     OW 2130   3.020   2.714   0.699  0.1939 -0.5083  0.1448
  650SOL    HW1 2131   3.049   2.748   0.609 -0.1830 -1.4359 -0.3491
  650SOL    HW2 2132   2.936   2.761   0.726 -0.2382 -0.9073 -0.4596
  651SOL     OW 2133   2.932   2.827   3.783 -0.3347 -0.2689 -0.0047
  651SOL    HW1 2134   3.017   2.804   3.831 -0.8078 -0.3127  0.8289
  651SOL    HW2 2135   2.908   2.752   3.722  0.5163 -0.0157 -0.6723
  652SOL     OW 2136   3.370   3.097   1.640  0.2911  0.1882 -0.2150
  652SOL    HW1 2137   3.334   3.010   1.607  0.8364 -0.0144 -0.2927
  652SOL    HW2 2138   3.328   3.172   1.590 -0.7733  0.0176  0.3904
  653SOL     OW 2139   1.980   1.074   3.552  0.1073 -0.1728 -0.1078
  653SOL    HW1 2140   1.944   1.076   3.459 -1.0885 -1.4547  0.3065
  653SOL    HW2 2141   1.918   1.122   3.613  0.2205 -0.4740  0.2496
  654SOL     OW 2142   3.013   3.389   0.991 -0.1491 -0.4065 -0.2804
  654SOL    HW1 2143   2.952   3.310   0.995  1.4936 -1.6846  2.9790
  654SOL    HW2 2144   3.108   3.359   0.998  0.6433  1.7611 -0.7745
  655SOL     OW 2145   3.015   1.067   0.166 -0.2316  0.3687  0.0307
  655SOL    HW1 2146   3.063   1.140   0.118 -0.8099  1.0999  0.5347
  655SOL    HW2 2147   2.948   1.025   0.104  1.2016 -0.8281 -0.7514
  656SOL     OW 2148   3.171   2.422   3.406  0.4842  0.4570  0.2565
  656SOL    HW1 2149   3.188   2.399   3.502  1.3343  1.2001  0.2896
  656SOL    HW2 2150   3.253   2.403   3.352 -0.1034 -0.2886 -0.3967
  657SOL     OW 2151   2.479   3.916   4.660 -0.3643  0.1309  0.0585
  657SOL    HW1 2152   2.534   3.939   4.580 -0.2575  0.8919  0.3374
  657SOL    HW2 2153   2.409   3.986   4.672 -0.2559  0.1271  0.7374
  658SOL     OW 2154   3.521   1.792   3.431 -0.5154  0.0744  0.0594
  658SOL    HW1 2155   3.582   1.772   3.354 -0.3714  0.3404  0.1005
  658SOL    HW2 2156   3.436   1.831   3.395 -0.3875  0.3431  0.0395
  659SOL     OW 2157   2.245   4.184   4.422 -0.4216 -0.4361 -0.2285
  659SOL    HW1 2158   2.313   4.206   4.353  0.9715 -0.4528  1.0755
  659SOL    HW2 2159   2.194   4.266   4.447 -1.7291 -0.6476 -2.0365
  660SOL     OW 2160   2.982   1.342   0.310  0.6660  0.3962 -0.2323
  660SOL    HW1 2161   2.972   1.349   0.409 -0.4067  0.1534 -0.3159
  660SOL    HW2 2162   2.908   1.286   0.273  2.6674 -2.0232 -0.8471
  661SOL     OW 2163   1.118   2.691   1.482 -0.1345 -0.2973 -0.6158
  661SOL    HW1 2164   1.032   2.648   1.456 -1.2333  0.2987  1.7189
  661SOL    HW2 2165   1.151   2.748   1.407 -1.4553 -1.0190 -1.7798
  662SOL     OW 2166   2.183   3.366   4.082  0.1985 -0.3303 -0.2220
  662SOL    HW1 2167   2.237   3.379   4.166 -0.4783  3.2400 -0.1957
  662SOL    HW2 2168   2.127   3.447   4.066  0.0454 -1.0082 -3.9854
  663SOL     OW 2169   3.271   3.407   3.647 -0.1560  0.8298  0.1353
  663SOL    HW1 2170   3.256   3.364   3.558 -0.6149  0.5674  0.3365
  663SOL    HW2 2171   3.369   3.404   3.669 -0.1662 -0.0055  0.0911
  664SOL     OW 2172   2.913   2.002   4.865 -0.2044  0.4333  0.0840
  664SOL    HW1 2173   2.972   2.052   4.802 -1.1785  2.8394  0.9659
  664SOL    HW2 2174   2.856   1.938   4.813  0.8613  0.4194 -1.1259
  665SOL     OW 2175   2.106   3.546   1.180  0.4453 -0.6309 -0.2501
  665SOL    HW1 2176   2.106   3.620   1.248 -1.5079 -0.9005  0.0955
  665SOL    HW2 2177   2.112   3.585   1.088 -0.3423 -0.0554 -0.0619
  666SOL     OW 2178   3.572   1.000   3.228  0.1190 -0.7079 -0.4898
  666SOL    HW1 2179   3.554   0.909   3.192 -0.2774  0.4556 -3.6046
  666SOL    HW2 2180   3.641   1.045   3.170  0.6918  0.8254  1.2662
  667SOL     OW 2181   3.261   2.531   0.242  0.7684 -0.7758 -0.2818
  667SOL    HW1 2182   3.190   2.474   0.200 -0.1236  0.3675 -0.3787
  667SOL    HW2 2183   3.267   2.509   0.339 -2.3199  1.5058  0.6101
  668SOL     OW 2184   2.508   0.063   3.763  0.3995 -0.2097  0.0610
  668SOL    HW1 2185   2.420   0.030   3.729 -0.6599  1.6079  0.9053
  668SOL    HW2 2186   2.570   0.078   3.686 -0.2388 -0.8547 -0.5993
  669SOL     OW 2187   2.071   3.027   1.897 -0.1588 -0.2451 -0.3470
  669SOL    HW1 2188   2.038   2.948   1.950 -1.1183 -0.2670 -0.9479
  669SOL    HW2 2189   2.044   3.111   1.943 -0.9776 -0.2642 -0.7714
  670SOL     OW 2190   2.230   3.242   3.468  0.2869  0.4991  0.5152
  670SOL    HW1 2191   2.258   3.193   3.386  1.9738  1.4663  0.4622
  670SOL    HW2 2192   2.281   3.207   3.547  0.9092  1.5582  0.6110
  671SOL     OW 2193   3.744   0.923   2.585 -0.3931  0.2589  0.0705
  671SOL    HW1 2194   3.733   0.976   2.669 -2.2841 -1.9535  1.3212
  671SOL    HW2 2195   3.823   0.863   2.593 -1.7633 -1.4951  1.2543
  672SOL     OW 2196   2.300   0.575   0.827 -0.3111 -0.2134  0.6187
  672SOL    HW1 2197   2.363   0.588   0.750 -0.6134  0.7102  0.5098
  672SOL    HW2 2198   2.286   0.663   0.873  0.1469 -0.8282  1.9658
  673SOL     OW 2199   3.722   3.581   3.610  0.2864 -0.2127 -0.1153
  673SOL    HW1 2200   3.765   3.496   3.581 -0.3585 -0.3785 -0.6283
  673SOL    HW2 2201   3.784   3.658   3.593  1.1027 -0.6307  0.8974
  674SOL     OW 2202   2.016   1.987   3.102  0.2827 -0.2183 -0.1045
  674SOL    HW1 2203   2.106   2.017   3.134  0.0232 -0.5806  1.0159
  674SOL    HW2 2204   2.027   1.919   3.030  0.9056 -0.2161 -0.0112
  675SOL     OW 2205   3.352   2.123   1.172 -0.3497  0.5166 -0.2753
  675SOL    HW1 2206   3.302   2.037   1.161  0.4919  0.0563 -0.6378
  675SOL    HW2 2207   3.392   2.150   1.084  2.5771 -0.7596  0.5214
  676SOL     OW 2208   1.888   2.124   3.925 -0.3216 -0.6727 -0.0754
  676SOL    HW1 2209   1.891   2.035   3.879 -1.9350  0.6510 -3.0592
  676SOL    HW2 2210   1.901   2.111   4.023  0.1583 -4.0951 -0.4699
  677SOL     OW 2211   2.061   2.516   0.381  0.2320 -0.1346 -0.2004
  677SOL    HW1 2212   1.963   2.497   0.385  0.4957 -2.2845 -1.8944
  677SOL    HW2 2213   2.087   2.534   0.286  1.1489  2.8028  0.5174
  678SOL     OW 2214   2.675   3.957   3.657  0.0112  0.1863  0.4270
  678SOL    HW1 2215   2.607   4.011   3.609 -2.2762 -1.5504  1.4834
  678SOL    HW2 2216   2.748   3.930   3.594  0.1794  2.7320 -0.5498
  679SOL     OW 2217   3.204   4.763   2.431  0.2496  0.2783  0.5086
  679SOL    HW1 2218   3.275   4.735   2.494 -1.2789  0.4356  2.3801
  679SOL    HW2 2219   3.176   4.857   2.452 -0.1602  0.4103 -0.5348
  680SOL     OW 2220   2.006   0.625   1.333  0.6290  0.5482 -0.5472
  680SOL    HW1 2221   2.051   0.680   1.262  3.8575 -0.2921  0.6896
  680SOL    HW2 2222   1.963   0.687   1.399 -0.3093  1.3791 -1.8700
  681SOL     OW 2223   3.271   3.445   3.082  0.8234 -0.0031  0.0804
  681SOL    HW1 2224   3.238   3.478   3.170 -1.8801 -1.0132 -0.4571
  681SOL    HW2 2225   3.371   3.448   3.081  0.9490 -0.0880  3.2116
  682SOL     OW 2226   2.201   2.940   2.298  0.6283  0.6218  0.1424
  682SOL    HW1 2227   2.103   2.962   2.293  0.6151  0.4412 -0.5312
  682SOL    HW2 2228   2.214   2.866   2.364  0.0037 -0.9073 -1.3559
  683SOL     OW 2229   1.521   2.126   2.856  0.2877 -0.2038 -0.3082
  683SOL    HW1 2230   1.485   2.187   2.785  0.5102 -1.6988 -1.7758
  683SOL    HW2 2231   1.454   2.118   2.930 -0.2661  0.8315 -0.6784
  684SOL     OW 2232   2.678   2.790   2.168  0.3803  0.9172  0.3049
  684SOL    HW1 2233   2.768   2.823   2.198  0.3963  0.0517  1.2779
  684SOL    HW2 2234   2.607   2.847   2.210  0.4596  1.3678 -0.1650
  685SOL     OW 2235   3.707   2.189   3.772  0.9418 -0.3640 -0.0225
  685SOL    HW1 2236   3.721   2.097   3.735  3.0557 -0.4636  0.9099
  685SOL    HW2 2237   3.638   2.185   3.844 -0.9830 -0.6828 -1.7701
  686SOL     OW 2238   3.282   2.046   2.623 -0.1778 -1.0012 -0.2475
  686SOL    HW1 2239   3.202   2.105   2.636  0.4483 -0.4630  1.3934
  686SOL    HW2 2240   3.365   2.102   2.629  0.3802 -1.8489  0.0240
  687SOL     OW 2241   1.975   3.254   1.108  0.5561  0.5247  0.2211
  687SOL    HW1 2242   1.972   3.324   1.178  2.2646 -0.7726  1.7027
  687SOL    HW2 2243   1.994   3.297   1.019 -1.4499  2.1690  0.5271
  688SOL     OW 2244   2.922   4.791   3.925  0.3920 -0.0466  0.1199
  688SOL    HW1 2245   2.980   4.867   3.898  0.7777 -0.6845 -0.9208
  688SOL    HW2 2246   2.826   4.818   3.918  0.5332  0.5173  0.3292
  689SOL     OW 2247   2.289   1.657   4.961 -0.3373 -0.3497  0.6049
  689SOL    HW1 2248   2.307   1.591   5.034  0.6635 -0.8713 -0.0865
  689SOL    HW2 2249   2.274   1.747   5.001  3.2603  0.0476  1.3993
  690SOL     OW 2250   3.214   4.107   2.537  0.0478 -0.3561  0.6222
  690SOL    HW1 2251   3.250   4.041   2.472  0.2685  0.7638 -0.4343
  690SOL    HW2 2252   3.151   4.168   2.490  0.7033  0.8873  1.3090
  691SOL     OW 2253   2.143   1.782   1.561  0.1617  0.1387  0.4233
  691SOL    HW1 2254   2.071   1.713   1.553 -0.3003  0.5183  1.1442
  691SOL    HW2 2255   2.232   1.739   1.551 -0.1476 -0.4301  0.0797
  692SOL     OW 2256   3.555   4.878   2.806 -0.0236  0.6298  0.0169
  692SOL    HW1 2257   3.605   4.881   2.893 -1.2752 -1.3347  0.8838
  692SOL    HW2 2258   3.556   4.969   2.765  1.1178  1.4869  1.7904
  693SOL     OW 2259   2.109   3.244   0.707  0.6078 -0.2308  0.0554
  693SOL    HW1 2260   2.048   3.202   0.640  1.3413  2.0095 -2.1783
  693SOL    HW2 2261   2.200   3.256   0.667  0.7035  2.4814  0.8549
  694SOL     OW 2262   2.605   0.939   1.560  0.5156 -0.6172  0.1803
  694SOL    HW1 2263   2.538   0.963   1.630  0.5946 -2.1516  0.8358
  694SOL    HW2 2264   2.606   1.009   1.489 -1.2755 -0.2166  0.5043
  695SOL     OW 2265   3.106   0.142   2.815  0.0840 -0.6027  0.0675
  695SOL    HW1 2266   3.081   0.178   2.725 -1.3212 -1.6485  0.0061
  695SOL    HW2 2267   3.047   0.182   2.885 -0.8464 -2.0013  0.1196
  696SOL     OW 2268   2.779   2.169   0.008  0.2863 -0.3604 -0.1301
  696SOL    HW1 2269   2.820   2.175   0.099 -1.2071 -0.8721  0.6096
  696SOL    HW2 2270   2.835   2.108  -0.049 -0.3965 -2.6006  1.4405
  697SOL     OW 2271   1.916   4.634   1.324 -0.0784 -0.6862 -0.0223
  697SOL    HW1 2272   1.940   4.577   1.245 -0.2700 -2.1003  0.8944
  697SOL    HW2 2273   1.996   4.687   1.352  0.1440 -0.5844 -0.8206
  698SOL     OW 2274   1.964   0.453   2.551  0.3197  0.1126 -0.2364
  698SOL    HW1 2275   1.902   0.452   2.472 -0.0461  3.6417 -0.1787
  698SOL    HW2 2276   2.021   0.535   2.546  1.6063 -0.5425  2.2546
  699SOL     OW 2277   2.528   3.972   4.237  0.3382  0.5092 -1.1452
  699SOL    HW1 2278   2.491   4.064   4.244  0.2158  0.3976 -0.1611
  699SOL    HW2 2279   2.461   3.913   4.192  0.0156  0.6874 -0.9030
  700SOL     OW 2280   1.645   4.207   2.026 -0.7281 -0.2075 -0.5207
  700SOL    HW1 2281   1.568   4.265   2.052 -1.4971 -0.8100 -1.3844
  700SOL    HW2 2282   1.643   4.193   1.927  1.6253  1.3455 -0.8578
  701SOL     OW 2283   1.491   1.426   2.507  0.6079  0.3733 -0.1872
  701SOL    HW1 2284   1.543   1.341   2.510  1.0520  0.6110 -0.7806
  701SOL    HW2 2285   1.517   1.477   2.424 -0.8618  0.3199 -0.7008
  702SOL     OW 2286   1.989   2.344   1.535 -0.4752  0.6571 -0.2706
  702SOL    HW1 2287   2.014   2.262   1.587 -0.9988  0.2887 -0.5933
  702SOL    HW2 2288   2.058   2.415   1.552  0.7134 -0.2756 -0.9964
  703SOL     OW 2289   3.245   1.425   1.928  0.4979  0.0313 -0.5831
  703SOL    HW1 2290   3.217   1.329   1.922  0.6385 -0.1283  0.9086
  703SOL    HW2 2291   3.270   1.446   2.023 -1.1964  1.9915 -0.5052
  704SOL     OW 2292   3.014   4.584   2.812  0.8448  0.4378 -0.6961
  704SOL    HW1 2293   3.083   4.543   2.871  0.0842 -0.2536 -0.2502
  704SOL    HW2 2294   3.037   4.679   2.795  0.8688  0.7856  1.0913
  705SOL     OW 2295   1.858   0.966   1.720  0.0946  0.2400  0.1539
  705SOL    HW1 2296   1.925   0.936   1.789 -0.0748  0.0802  0.2494
  705SOL    HW2 2297   1.769   0.978   1.764  0.3691  1.8818  0.3358
  706SOL     OW 2298   2.159   0.149   1.683 -0.2817  0.5347  0.4764
  706SOL    HW1 2299   2.168   0.246   1.706 -2.8362  0.3959  2.4729
  706SOL    HW2 2300   2.101   0.104   1.750  0.7350 -2.4163 -0.4435
  707SOL     OW 2301   2.114   0.355   2.968 -0.5262 -0.7574 -0.3018
  707SOL    HW1 2302   2.114   0.355   3.068 -1.6515  0.9415 -0.2420
  707SOL    HW2 2303   2.044   0.292   2.935 -1.6147  0.2207  0.0728
  708SOL     OW 2304   1.775   3.113   4.500 -0.3412 -0.1383 -0.0618
  708SOL    HW1 2305   1.782   3.097   4.599  0.7361  1.4674  0.1598
  708SOL    HW2 2306   1.713   3.189   4.484  0.4691  0.4433 -0.5155
  709SOL     OW 2307   2.027   4.751   1.676  0.4615  0.6630  0.3715
  709SOL    HW1 2308   2.023   4.651   1.670 -2.6526  0.5913  1.7247
  709SOL    HW2 2309   1.943   4.789   1.637  1.9245  2.8518 -0.8047
  710SOL     OW 2310   2.318   2.486   2.084  0.3896  0.4953 -0.4447
  710SOL    HW1 2311   2.327   2.585   2.076  1.0112  0.5113  0.3129
  710SOL    HW2 2312   2.240   2.465   2.143 -1.7812  0.4472 -3.1770
  711SOL     OW 2313   2.161   3.174   0.247  0.0193  0.7546  0.2255
  711SOL    HW1 2314   2.115   3.247   0.297 -3.6773  1.0767 -3.1514
  711SOL    HW2 2315   2.125   3.085   0.277  0.3572  0.7011  0.4780
  712SOL     OW 2316   2.824   0.562   3.826  0.1326 -0.5090  0.0205
  712SOL    HW1 2317   2.872   0.592   3.909  1.2478 -2.6604  0.2260
  712SOL    HW2 2318   2.856   0.616   3.749  1.3978 -0.5324  0.5035
  713SOL     OW 2319   1.680   1.812   1.769 -0.0549 -0.4005  0.3322
  713SOL    HW1 2320   1.720   1.722   1.787  0.7523 -0.1477 -0.1311
  713SOL    HW2 2321   1.675   1.863   1.855  0.1366 -0.6306  0.4834
  714SOL     OW 2322   3.162   3.313   2.242  0.6496  0.0998 -0.6405
  714SOL    HW1 2323   3.081   3.297   2.186  1.3073 -1.7158 -1.1384
  714SOL    HW2 2324   3.146   3.278   2.335  1.4191 -1.8761 -1.2076
  715SOL     OW 2325   2.533   0.767   3.141 -0.1800  0.6077  0.0718
  715SOL    HW1 2326   2.478   0.849   3.127 -0.6753  0.1241 -0.9824
  715SOL    HW2 2327   2.615   0.773   3.084 -0.2767  0.3259 -0.1011
  716SOL     OW 2328   2.683   3.875   1.674  0.2072 -0.1378 -0.5554
  716SOL    HW1 2329   2.605   3.866   1.736 -1.0815 -1.5584 -2.2502
  716SOL    HW2 2330   2.727   3.963   1.689  0.2426 -0.5748  2.6167
  717SOL     OW 2331   1.931   0.575   3.191  0.5039  0.4703  0.2178
  717SOL    HW1 2332   1.984   0.495   3.165  0.9354  0.7035  0.3712
  717SOL    HW2 2333   1.950   0.598   3.286 -0.7874 -0.1622  0.6491
  718SOL     OW 2334   2.846   1.150   1.982  0.2189  0.4466 -0.0141
  718SOL    HW1 2335   2.838   1.166   2.081  0.9430 -2.0178  0.5127
  718SOL    HW2 2336   2.789   1.216   1.934 -0.5160  1.4261  2.0623
  719SOL     OW 2337   3.122   4.840   0.848  0.1791  0.0193 -0.1085
  719SOL    HW1 2338   3.104   4.937   0.865  0.3224 -0.0566  0.5178
  719SOL    HW2 2339   3.042   4.787   0.877  0.2137 -0.0737 -0.1824
  720SOL     OW 2340   1.356   3.514   2.505  0.0126  0.3669  0.1630
  720SOL    HW1 2341   1.314   3.491   2.593  0.7550  1.0048  0.6967
  720SOL    HW2 2342   1.324   3.450   2.435 -0.1330 -0.5214  1.0246
  721SOL     OW 2343   2.173   2.005   2.779 -0.2847 -0.1460 -0.0478
  721SOL    HW1 2344   2.208   1.974   2.691 -1.0656  1.4411 -0.9447
  721SOL    HW2 2345   2.130   1.927   2.826  1.6096 -1.3943 -0.2796
  722SOL     OW 2346   3.223   0.761   3.915  0.2253  0.2975 -0.5572
  722SOL    HW1 2347   3.240   0.820   3.994 -0.9147 -1.0410  0.7338
  722SOL    HW2 2348   3.307   0.756   3.860  0.8621  1.7296  0.2272
  723SOL     OW 2349   2.839   4.535   4.090 -0.3058 -0.4882  0.6598
  723SOL    HW1 2350   2.809   4.626   4.119 -1.4217 -0.8069  0.5568
  723SOL    HW2 2351   2.892   4.543   4.006  0.0167  0.1076  0.9140
  724SOL     OW 2352   2.126   3.744   1.393 -0.4499 -0.1582 -0.2136
  724SOL    HW1 2353   2.219   3.726   1.423 -0.4488  1.3509  0.8225
  724SOL    HW2 2354   2.064   3.739   1.472 -0.3808  4.4042  0.4394
  725SOL     OW 2355   1.611   2.925   1.121 -0.5397 -0.7930 -0.2366
  725SOL    HW1 2356   1.696   2.924   1.174  0.1879  2.9066 -1.0318
  725SOL    HW2 2357   1.633   2.913   1.024 -0.6229  1.6297 -0.6152
  726SOL     OW 2358   2.665   4.385   3.214  0.3759  0.0761  0.2352
  726SOL    HW1 2359   2.596   4.312   3.211  0.8255 -0.3464 -0.2791
  726SOL    HW2 2360   2.623   4.471   3.186 -0.7450  0.5476  3.1029
  727SOL     OW 2361   3.428   3.170   4.952 -0.1156  0.0570  0.2341
  727SOL    HW1 2362   3.388   3.160   5.044 -0.1850  1.8580  0.4336
  727SOL    HW2 2363   3.410   3.087   4.900  0.2370 -1.1720  1.9557
  728SOL     OW 2364   3.542   0.715   3.165  0.5602 -0.7577 -0.3607
  728SOL    HW1 2365   3.522   0.722   3.263  0.2835 -2.2761 -0.2735
  728SOL    HW2 2366   3.525   0.621   3.135  2.2250 -0.7343 -1.5106
  729SOL     OW 2367   3.126   2.180   4.366  0.5421  0.7377  0.0436
  729SOL    HW1 2368   3.037   2.185   4.413  0.0539 -0.3166 -0.7332
  729SOL    HW2 2369   3.122   2.236   4.283  0.6107  0.7150  0.0250
  730SOL     OW 2370   2.313   3.419   4.305  0.5764 -0.2980 -0.0387
  730SOL    HW1 2371   2.408   3.419   4.274 -0.5226 -1.2649 -3.9212
  730SOL    HW2 2372   2.287   3.511   4.333  2.6028 -0.0268  1.1338
  731SOL     OW 2373   2.178   0.817   2.949 -0.1044  0.0591 -0.3272
  731SOL    HW1 2374   2.192   0.718   2.939 -1.9136 -0.2885  0.2769
  731SOL    HW2 2375   2.248   0.853   3.010 -0.1690 -1.0951  0.4663
  732SOL     OW 2376   2.203   4.922   2.120  0.0530 -0.3138 -0.0893
  732SOL    HW1 2377   2.147   4.848   2.157 -0.9469 -0.6113 -2.0376
  732SOL    HW2 2378   2.192   5.004   2.176 -1.7385 -0.6006  0.0110
  733SOL     OW 2379   3.407   2.210   1.759  0.2985 -0.0395  0.2151
  733SOL    HW1 2380   3.374   2.247   1.671 -1.1319  0.7868  1.0486
  733SOL    HW2 2381   3.406   2.110   1.755 -1.1206 -0.0389 -0.2794
  734SOL     OW 2382   2.852   4.429   3.422 -0.6128  0.7837 -0.1353
  734SOL    HW1 2383   2.934   4.373   3.406 -1.8963 -1.4307  0.6825
  734SOL    HW2 2384   2.792   4.423   3.342 -0.7914  0.9776 -0.0165
  735SOL     OW 2385   1.260   1.829   2.916  0.2330 -0.5346 -0.9618
  735SOL    HW1 2386   1.307   1.886   2.849  1.3913 -2.2214 -1.6441
  735SOL    HW2 2387   1.324   1.762   2.953 -0.9784 -1.1428  0.1336
  736SOL     OW 2388   2.414   1.649   4.000  0.3498 -0.5457  0.3339
  736SOL    HW1 2389   2.480   1.578   3.976  0.3505 -0.6486  0.6370
  736SOL    HW2 2390   2.448   1.700   4.078 -0.9692 -2.0824  1.9936
  737SOL     OW 2391   3.265   1.298   2.851  0.2870  0.3629  0.1212
  737SOL    HW1 2392   3.254   1.214   2.904  0.1645  1.5004  2.0019
  737SOL    HW2 2393   3.351   1.294   2.800  0.7080 -0.5643  0.8727
  738SOL     OW 2394   2.486   2.934   1.077  0.6706  0.0284 -0.5122
  738SOL    HW1 2395   2.412   2.996   1.107  1.1687  0.5907 -0.4253
  738SOL    HW2 2396   2.567   2.952   1.133 -0.0513 -2.8556  1.6912
  739SOL     OW 2397   1.350   2.663   0.035  0.2272 -0.4193 -0.1820
  739SOL    HW1 2398   1.294   2.744   0.019  0.1819 -0.8894 -2.8735
  739SOL    HW2 2399   1.398   2.639  -0.050 -1.3185 -4.3296 -0.1600
  740SOL     OW 2400   2.737   2.026   0.900  0.4480 -0.4747  0.0454
  740SOL    HW1 2401   2.745   1.955   0.971  1.0014  0.5276  1.0227
  740SOL    HW2 2402   2.812   2.090   0.910  0.3193 -0.0980 -1.2473
  741SOL     OW 2403   2.304   0.535   2.918 -0.0012 -0.0283 -0.1634
  741SOL    HW1 2404   2.387   0.515   2.970 -0.2037  0.8472  0.5323
  741SOL    HW2 2405   2.236   0.464   2.934  0.6443 -0.8193 -0.8368
  742SOL     OW 2406   2.670   1.733   0.176  0.3916  0.2626 -0.0122
  742SOL    HW1 2407   2.757   1.777   0.155  0.0280  0.8831 -0.2343
  742SOL    HW2 2408   2.634   1.688   0.094  0.0859  0.7444 -0.1479
  743SOL     OW 2409   3.867   3.789   3.414 -0.0557 -0.0664  0.0433
  743SOL    HW1 2410   3.889   3.887   3.418 -0.8109  0.0642  1.3150
  743SOL    HW2 2411   3.867   3.760   3.318 -1.5211  1.5749 -0.5110
  744SOL     OW 2412   3.283   3.387   2.695 -0.2150 -0.1557  0.1207
  744SOL    HW1 2413   3.338   3.352   2.619 -0.1355 -0.8208  0.4788
  744SOL    HW2 2414   3.281   3.487   2.691 -0.7476 -0.1981 -1.1286
  745SOL     OW 2415   1.731   2.236   0.890 -0.1228  0.1836  0.3237
  745SOL    HW1 2416   1.766   2.143   0.900 -0.9703 -0.4515 -1.9287
  745SOL    HW2 2417   1.632   2.233   0.875 -0.2204  1.4816  0.5401
  746SOL     OW 2418   1.638   3.822   4.530 -0.4206 -0.5346  0.1889
  746SOL    HW1 2419   1.686   3.824   4.618 -1.0590 -1.5137  0.5731
  746SOL    HW2 2420   1.695   3.867   4.461  0.2300 -0.0420  1.0303
  747SOL     OW 2421   1.733   4.620   2.695  0.0921  0.1352  0.7000
  747SOL    HW1 2422   1.700   4.684   2.764 -0.0212 -1.1260  1.8541
  747SOL    HW2 2423   1.832   4.610   2.703  0.0408 -0.2414  0.8924
  748SOL     OW 2424   2.532   2.542   4.802  0.5570 -0.0524 -0.2790
  748SOL    HW1 2425   2.457   2.486   4.769 -0.5737  0.0502  1.9465
  748SOL    HW2 2426   2.604   2.483   4.840  0.6451 -0.0765 -0.4818
  749SOL     OW 2427   2.228   4.752   2.423  0.4911  0.1088 -0.4041
  749SOL    HW1 2428   2.307   4.692   2.410  1.2942  1.3103 -1.3200
  749SOL    HW2 2429   2.159   4.732   2.353 -1.7365 -3.4224  2.4881
  750SOL     OW 2430   3.457   2.171   0.947 -0.2751  0.1209 -0.0811
  750SOL    HW1 2431   3.420   2.225   0.871  0.2294  1.4083  0.5585
  750SOL    HW2 2432   3.545   2.132   0.920 -0.4680 -0.0883 -0.4169
  751SOL     OW 2433   2.330   0.098   1.456  0.4464 -0.3241 -0.4490
  751SOL    HW1 2434   2.279   0.125   1.537  0.3821 -0.0851 -0.5684
  751SOL    HW2 2435   2.312   0.164   1.382 -0.8726 -1.4805 -1.2115
  752SOL     OW 2436   1.854   1.871   3.780  0.4926  0.0939 -0.0717
  752SOL    HW1 2437   1.760   1.858   3.746  0.9921 -0.4062 -1.3388
  752SOL    HW2 2438   1.884   1.787   3.825 -0.2014  0.7877  1.7739
  753SOL     OW 2439   3.113   3.181   2.497 -0.5357 -0.3668  0.4071
  753SOL    HW1 2440   3.174   3.192   2.576  2.5918  0.3340 -1.9140
  753SOL    HW2 2441   3.021   3.213   2.521  0.2652 -0.2371  3.7180
  754SOL     OW 2442   3.671   1.089   1.108 -0.5118 -0.3573 -0.3090
  754SOL    HW1 2443   3.740   1.161   1.118 -0.0747 -0.6508 -1.1044
  754SOL    HW2 2444   3.592   1.126   1.059  0.6345 -0.9398 -2.7726
  755SOL     OW 2445   2.304   3.654   2.034 -0.2557 -0.3806  0.2913
  755SOL    HW1 2446   2.300   3.754   2.045  1.4838 -0.1891 -0.5102
  755SOL    HW2 2447   2.397   3.627   2.011 -0.4358 -2.3481  1.6358
  756SOL     OW 2448   2.639   0.344   1.590 -0.3565 -0.7510  0.5129
  756SOL    HW1 2449   2.620   0.253   1.551  0.7498 -1.0603  0.6477
  756SOL    HW2 2450   2.710   0.388   1.534  0.6214 -0.8427  1.6426
  757SOL     OW 2451   2.348   4.492   3.517  1.0561 -0.3844  0.4878
  757SOL    HW1 2452   2.438   4.468   3.554  0.3235 -1.2935  1.7850
  757SOL    HW2 2453   2.329   4.434   3.437  1.4511 -0.4767  0.4581
  758SOL     OW 2454   3.478   1.191   3.855  0.0621  0.3830  0.2105
  758SOL    HW1 2455   3.388   1.154   3.832 -0.1377  1.4334 -0.8035
  758SOL    HW2 2456   3.535   1.118   3.891 -0.9177 -0.4890  0.0492
  759SOL     OW 2457   2.206   2.117   0.770  0.7580  0.7191 -0.0169
  759SOL    HW1 2458   2.178   2.021   0.761  1.5812  0.4734 -0.0099
  759SOL    HW2 2459   2.126   2.172   0.795  0.4175 -0.0666  0.6735
  760SOL     OW 2460   2.711   0.801   3.370  0.2030 -0.2080 -0.1045
  760SOL    HW1 2461   2.680   0.796   3.465  0.3977  2.9543  0.2096
  760SOL    HW2 2462   2.632   0.804   3.309 -0.0232  1.0601  0.2263
  761SOL     OW 2463   3.029   4.590   0.723 -0.0160 -0.1686 -0.1728
  761SOL    HW1 2464   3.122   4.602   0.686 -0.3135 -0.4731 -1.0404
  761SOL    HW2 2465   3.005   4.493   0.721 -0.3364 -0.0974  0.1059
  762SOL     OW 2466   2.690   3.916   3.321 -0.3414 -0.4877  0.6815
  762SOL    HW1 2467   2.779   3.934   3.362 -0.2883 -1.0205  0.8173
  762SOL    HW2 2468   2.652   3.832   3.362 -0.0450 -1.3393 -0.7283
  763SOL     OW 2469   1.906   0.996   3.100  0.7409 -0.0935 -0.1333
  763SOL    HW1 2470   1.814   1.016   3.065  1.3703  1.1697 -1.1893
  763SOL    HW2 2471   1.947   0.924   3.044  0.3953 -0.6859  0.3635
  764SOL     OW 2472   1.822   3.545   4.617 -0.3126 -0.2599 -0.1532
  764SOL    HW1 2473   1.920   3.527   4.612 -0.2422  0.4177 -1.8761
  764SOL    HW2 2474   1.807   3.629   4.670  0.2851  1.0524 -1.9501
  765SOL     OW 2475   2.362   1.602   1.534 -0.0451  0.2255 -0.2500
  765SOL    HW1 2476   2.442   1.662   1.531  0.7782 -0.8418 -0.4320
  765SOL    HW2 2477   2.352   1.556   1.446 -0.2241 -0.4423  0.1067
  766SOL     OW 2478   2.607   4.910   2.015 -0.2337 -0.0473 -0.4838
  766SOL    HW1 2479   2.649   5.001   2.023 -0.8704  0.1579  0.7985
  766SOL    HW2 2480   2.676   4.840   2.035  0.2484  0.1336 -1.4334
  767SOL     OW 2481   2.007   3.239   3.115  0.1754  0.1067 -0.6199
  767SOL    HW1 2482   2.070   3.177   3.068  0.1964 -0.1353 -0.2792
  767SOL    HW2 2483   1.990   3.204   3.207  0.3800  0.7332 -0.3376
  768SOL     OW 2484   1.361   4.578   2.317  0.3001  0.4184 -0.4849
  768SOL    HW1 2485   1.442   4.578   2.375 -0.9005 -1.7389  1.3796
  768SOL    HW2 2486   1.283   4.613   2.369 -0.7823 -1.4468 -0.7450
  769SOL     OW 2487   3.020   2.103   3.054 -0.1369 -0.0548  0.5323
  769SOL    HW1 2488   3.085   2.175   3.027  0.8228 -1.0667  0.0585
  769SOL    HW2 2489   2.931   2.145   3.073 -0.2266  1.0446 -1.8593
  770SOL     OW 2490   1.995   1.908   0.677  0.1560 -0.0218 -0.2855
  770SOL    HW1 2491   2.002   1.856   0.592 -1.2895  1.4247 -1.3383
  770SOL    HW2 2492   2.023   1.850   0.753  0.6404 -1.6305 -1.6312
  771SOL     OW 2493   3.344   3.143   2.978  0.0691  0.6351  0.5504
  771SOL    HW1 2494   3.439   3.115   2.968 -0.1611 -0.0329  0.2354
  771SOL    HW2 2495   3.341   3.229   3.031  0.7362 -0.2405  2.0827
  772SOL     OW 2496   3.285   1.921   3.962 -0.1056  0.1502 -0.1491
  772SOL    HW1 2497   3.330   1.939   4.050  0.3404  0.4188 -0.4299
  772SOL    HW2 2498   3.334   1.849   3.914 -0.8807 -0.6386  0.2101
  773SOL     OW 2499   2.554   4.601   1.179 -0.0684 -0.1646  0.4512
  773SOL    HW1 2500   2.591   4.598   1.086  0.2996 -1.1290  0.6199
  773SOL    HW2 2501   2.475   4.663   1.181 -0.6451 -0.8313 -0.7041
  774SOL     OW 2502   1.522   3.515   4.043 -0.5982  0.2568 -0.2968
  774SOL    HW1 2503   1.545   3.583   4.111 -2.1937  0.5929 -0.0573
  774SOL    HW2 2504   1.564   3.540   3.955  0.5485  0.3943  0.2655
  775SOL     OW 2505   3.028   4.466   1.711 -0.0890  0.2077  0.5910
  775SOL    HW1 2506   2.954   4.500   1.654 -1.0258  0.7971  2.1028
  775SOL    HW2 2507   3.109   4.524   1.700 -0.5121  0.7699  0.4618
  776SOL     OW 2508   2.974   0.168   2.079  0.2028 -0.3726 -0.5444
  776SOL    HW1 2509   2.976   0.125   2.170  0.1707 -0.0156 -0.3747
  776SOL    HW2 2510   3.004   0.101   2.011  1.5284 -0.2576 -0.1092
  777SOL     OW 2511   3.555   3.756   3.025  0.0188  0.3664  0.2671
  777SOL    HW1 2512   3.549   3.656   3.014  0.5516  0.3994 -0.3599
  777SOL    HW2 2513   3.638   3.777   3.077  0.0829  0.5022  0.1086
  778SOL     OW 2514   2.141   2.597   1.556 -0.0967  0.3181  0.1771
  778SOL    HW1 2515   2.047   2.625   1.575  0.0340  0.8446  0.0444
  778SOL    HW2 2516   2.203   2.645   1.618  0.0885 -0.0618  0.2964
  779SOL     OW 2517   2.332   4.845   1.568 -0.0406 -0.3319  0.0750
  779SOL    HW1 2518   2.323   4.923   1.507  0.7098 -0.4589 -0.2134
  779SOL    HW2 2519   2.350   4.877   1.661 -0.4566 -0.1549  0.0968
  780SOL     OW 2520   2.858   2.574   3.040 -0.1231 -0.1530 -0.2208
  780SOL    HW1 2521   2.771   2.528   3.021 -0.8507 -0.1127  2.5401
  780SOL    HW2 2522   2.840   2.671   3.059  0.8890  0.4246 -1.9679
  781SOL     OW 2523   1.754   2.391   3.260 -0.1478  0.2472 -0.1529
  781SOL    HW1 2524   1.701   2.398   3.175 -0.5570 -0.3056  0.0544
  781SOL    HW2 2525   1.706   2.331   3.324  0.1361  0.6936  0.4897
  782SOL     OW 2526   1.646   2.559   1.218 -0.1884 -0.2580 -0.4760
  782SOL    HW1 2527   1.585   2.510   1.280 -0.1283  0.4431  0.1641
  782SOL    HW2 2528   1.704   2.622   1.272 -0.4834  0.7362 -1.2832
  783SOL     OW 2529   3.512   2.882   1.829  0.0463 -0.5448  0.4120
  783SOL    HW1 2530   3.547   2.794   1.796 -0.0901  0.2260 -1.9866
  783SOL    HW2 2531   3.422   2.898   1.789  0.8123  1.4357 -0.6904
  784SOL     OW 2532   3.661   1.834   4.146  0.2331  0.1485  0.5989
  784SOL    HW1 2533   3.661   1.748   4.094 -0.0703  0.5487 -0.0780
  784SOL    HW2 2534   3.749   1.845   4.191 -0.1966 -1.1939  1.8419
  785SOL     OW 2535   3.015   3.645   2.391  0.1820 -0.4026 -0.0206
  785SOL    HW1 2536   3.025   3.683   2.299  0.3349 -0.9411 -0.2305
  785SOL    HW2 2537   3.095   3.671   2.445 -1.1291  2.2477  0.8326
  786SOL     OW 2538   3.619   2.736   3.213 -0.5830  0.2776 -0.0630
  786SOL    HW1 2539   3.572   2.815   3.252 -0.3002  0.1120  0.6272
  786SOL    HW2 2540   3.605   2.735   3.114 -2.9239 -0.3487  0.2145
  787SOL     OW 2541   3.061   1.530   4.558 -0.4964 -0.0179  0.0909
  787SOL    HW1 2542   3.093   1.614   4.602  2.0710 -0.0612 -1.5558
  787SOL    HW2 2543   3.136   1.464   4.553 -1.2116 -0.7569 -2.5122
  788SOL     OW 2544   1.407   2.620   1.860 -0.3037 -0.3609 -0.3533
  788SOL    HW1 2545   1.377   2.597   1.767 -0.5997 -0.7801 -0.1543
  788SOL    HW2 2546   1.413   2.720   1.868 -0.9725 -0.2932 -0.6064
  789SOL     OW 2547   3.272   4.662   3.509 -0.0302 -0.7567  0.3465
  789SOL    HW1 2548   3.268   4.573   3.463 -1.5169 -0.6645  0.2553
  789SOL    HW2 2549   3.183   4.682   3.551  0.3357  0.6115  0.5264
  790SOL     OW 2550   3.392   2.561   0.573  0.0252  0.4992 -0.2508
  790SOL    HW1 2551   3.335   2.487   0.535 -0.4555  0.9983 -0.5119
  790SOL    HW2 2552   3.401   2.634   0.505  1.5075  0.1612 -0.4591
  791SOL     OW 2553   1.859   4.027   1.605  0.3316  0.6011  0.4873
  791SOL    HW1 2554   1.916   3.946   1.612  1.7754  1.4149 -1.0771
  791SOL    HW2 2555   1.763   4.002   1.619  0.5842 -1.6124 -1.2869
  792SOL     OW 2556   3.374   0.009   1.465 -0.1936 -1.0033 -0.0578
  792SOL    HW1 2557   3.298  -0.054   1.445  0.2810 -1.2721 -1.1204
  792SOL    HW2 2558   3.455  -0.044   1.488  0.2895 -0.8148 -1.2456
  793SOL     OW 2559   3.048   2.891   2.467 -0.4117  0.0545  0.4563
  793SOL    HW1 2560   3.003   2.871   2.554 -0.5429  0.2545  0.4346
  793SOL    HW2 2561   3.086   2.984   2.470  0.9966 -0.5143  0.8927
  794SOL     OW 2562   1.489   1.120   1.493 -0.3493 -0.2951 -0.2108
  794SOL    HW1 2563   1.404   1.143   1.541 -1.5247 -0.8945 -1.9005
  794SOL    HW2 2564   1.531   1.040   1.537 -1.4961 -0.9522 -0.2574
  795SOL     OW 2565   2.977   0.998   3.694 -0.2340  0.3501  0.1206
  795SOL    HW1 2566   3.019   1.046   3.616 -0.5988  0.4400 -0.0209
  795SOL    HW2 2567   2.887   1.036   3.711  0.5117  1.5260  1.7025
  796SOL     OW 2568   2.768   0.035   1.713 -0.2989 -0.5890  0.0249
  796SOL    HW1 2569   2.677   0.043   1.674 -0.2299 -1.2756 -0.3020
  796SOL    HW2 2570   2.805   0.126   1.731 -0.2140 -0.2130 -1.8062
  797SOL     OW 2571   2.241   4.603   0.995 -0.8134 -0.2107  0.0771
  797SOL    HW1 2572   2.311   4.538   0.969 -1.5708 -1.2735  0.6240
  797SOL    HW2 2573   2.226   4.667   0.919 -0.9596 -1.4603 -0.9907
  798SOL     OW 2574   2.356   1.537   4.385  0.1639  0.5978  0.0421
  798SOL    HW1 2575   2.454   1.544   4.368  0.3711 -0.0255  0.8882
  798SOL    HW2 2576   2.318   1.462   4.332  0.3547  0.1598  0.5180
  799SOL     OW 2577   2.039   2.022   1.064 -1.0773 -0.2163  0.1362
  799SOL    HW1 2578   2.138   2.018   1.049 -0.8186  3.0384  0.2465
  799SOL    HW2 2579   2.019   2.000   1.159 -0.2423  0.6875  0.5392
  800SOL     OW 2580   2.733   0.392   3.463  0.4257 -0.5615 -0.1297
  800SOL    HW1 2581   2.688   0.364   3.378  0.4323  3.1166 -1.4874
  800SOL    HW2 2582   2.823   0.431   3.442  0.5379  0.1898  1.5805
  801SOL     OW 2583   1.725   1.846   3.410 -0.0709 -0.5893  0.4901
  801SOL    HW1 2584   1.712   1.804   3.320  1.1757 -1.2934  0.6186
  801SOL    HW2 2585   1.822   1.842   3.434 -0.3154  0.0784  1.6352
  802SOL     OW 2586   2.980   4.666   3.534 -0.1132  0.0204 -0.4650
  802SOL    HW1 2587   2.939   4.652   3.624  0.6737  1.3438  0.1437
  802SOL    HW2 2588   2.935   4.608   3.467 -0.4632 -1.2779  0.8498
  803SOL     OW 2589   3.605   3.486   1.316 -0.0317 -0.8005  0.0146
  803SOL    HW1 2590   3.698   3.480   1.351  0.2204  1.0706 -0.2190
  803SOL    HW2 2591   3.594   3.574   1.270 -1.5991 -1.4520 -0.9112
  804SOL     OW 2592   1.968   4.601   2.893  0.1040  0.1507  0.4686
  804SOL    HW1 2593   1.936   4.526   2.951  1.5961 -1.1484 -0.3014
  804SOL    HW2 2594   2.058   4.577   2.856  1.2936  2.9528  1.3188
  805SOL     OW 2595   1.873   2.152   0.319  0.1580 -0.1675 -0.0993
  805SOL    HW1 2596   1.858   2.141   0.417 -3.5107  1.0967 -0.3725
  805SOL    HW2 2597   1.883   2.250   0.298 -0.4924 -0.3046 -1.1184
  806SOL     OW 2598   1.389   2.645   2.360  0.0028  0.5368  0.1663
  806SOL    HW1 2599   1.299   2.617   2.326  0.0690  0.8596 -0.2849
  806SOL    HW2 2600   1.401   2.611   2.453  0.6803 -2.2127 -0.8305
  807SOL     OW 2601   1.696   3.613   3.548  0.7736  0.6170  0.1212
  807SOL    HW1 2602   1.676   3.684   3.616  2.0370  1.2872 -0.1859
  807SOL    HW2 2603   1.786   3.630   3.508  0.9039 -0.9128 -0.2891
  808SOL     OW 2604   2.393   1.580   0.450  0.0610 -0.8132 -0.1053
  808SOL    HW1 2605   2.467   1.513   0.449  1.7722  1.0050 -1.3291
  808SOL    HW2 2606   2.431   1.671   0.462 -1.9840  0.2018 -0.8345
  809SOL     OW 2607   2.427   4.755   2.769 -0.6607 -0.0096  0.2387
  809SOL    HW1 2608   2.342   4.773   2.719  0.4822  0.0420 -1.7547
  809SOL    HW2 2609   2.411   4.774   2.866 -2.7717  0.5092 -0.1451
  810SOL     OW 2610   1.958   3.098   0.534  0.1408  0.1376  0.1514
  810SOL    HW1 2611   1.866   3.058   0.539  0.1224  0.2673  1.0971
  810SOL    HW2 2612   2.016   3.040   0.477 -0.7007  0.4213 -1.0399
  811SOL     OW 2613   1.888   1.921   1.564 -0.6763 -0.0841 -0.0070
  811SOL    HW1 2614   1.975   1.876   1.584 -1.1310 -1.2033 -0.4056
  811SOL    HW2 2615   1.818   1.886   1.626 -0.9061  0.5972  0.1270
  812SOL     OW 2616   2.550   0.534   1.253  0.7098 -0.3984  0.3371
  812SOL    HW1 2617   2.641   0.546   1.212 -0.5049  1.0992 -2.1808
  812SOL    HW2 2618   2.501   0.462   1.204 -0.2639  0.4008  0.1020
  813SOL     OW 2619   2.032   0.216   2.666  0.8328  0.6932  0.3313
  813SOL    HW1 2620   1.985   0.200   2.753 -2.8288 -0.0929 -1.5844
  813SOL    HW2 2621   2.003   0.303   2.627 -2.4135 -1.4788 -2.6803
  814SOL     OW 2622   1.445   4.725   2.095  0.6660 -0.0316  0.5038
  814SOL    HW1 2623   1.431   4.671   2.013 -0.0148  1.2204 -0.2422
  814SOL    HW2 2624   1.399   4.681   2.172 -0.7958  0.0019 -0.3123
  815SOL     OW 2625   3.137   0.109   4.058  0.4189 -0.8131 -0.0861
  815SOL    HW1 2626   3.141   0.074   3.964 -0.8910 -0.1935 -0.4033
  815SOL    HW2 2627   3.117   0.034   4.121  2.8707 -1.5248 -0.0612
  816SOL     OW 2628   2.198   2.186   0.185  0.1291  0.5649  0.5972
  816SOL    HW1 2629   2.231   2.097   0.155 -1.6392 -0.1068  0.5147
  816SOL    HW2 2630   2.141   2.175   0.266  0.2456  1.6737  0.8494
  817SOL     OW 2631   1.427   3.810   1.840  0.2247 -0.1149 -0.1401
  817SOL    HW1 2632   1.372   3.745   1.893  0.8234  0.6659  1.5201
  817SOL    HW2 2633   1.494   3.759   1.786 -0.0846 -0.9262  0.2115
  818SOL     OW 2634   3.119   4.385   2.219 -0.2987  0.2260 -0.6912
  818SOL    HW1 2635   3.067   4.369   2.303  0.5177  0.7933 -0.0565
  818SOL    HW2 2636   3.138   4.297   2.175  0.4566 -0.2278  0.4752
  819SOL     OW 2637   2.309   3.154   3.714 -0.0856  0.7422 -0.0644
  819SOL    HW1 2638   2.229   3.154   3.775 -0.2544  1.8697 -0.2554
  819SOL    HW2 2639   2.337   3.060   3.696  0.4999  0.3720  2.4375
  820SOL     OW 2640   2.264   4.092   1.257 -0.4450  0.7600  0.0480
  820SOL    HW1 2641   2.207   4.168   1.288 -0.0834  0.0661  2.6666
  820SOL    HW2 2642   2.206   4.019   1.222 -0.8861  1.5457 -0.9124
  821SOL     OW 2643   2.779   1.294   0.100  0.1215 -0.3441 -0.9557
  821SOL    HW1 2644   2.750   1.198   0.092 -1.0441 -0.0021 -1.0262
  821SOL    HW2 2645   2.856   1.310   0.039  0.5148 -1.3043 -0.7358
  822SOL     OW 2646   3.012   3.693   4.897  0.1499  0.2271  0.2941
  822SOL    HW1 2647   3.040   3.604   4.934  1.1331  0.8204  1.0493
  822SOL    HW2 2648   2.913   3.700   4.899  0.1188 -0.1655  1.9339
  823SOL     OW 2649   1.961   3.019   2.734 -0.4911 -0.3938 -0.7963
  823SOL    HW1 2650   1.917   3.060   2.654 -0.3155 -0.6324 -1.0175
  823SOL    HW2 2651   1.915   3.051   2.817  0.9824  1.9576 -0.8164
  824SOL     OW 2652   2.509   1.473   1.189  0.5285  0.0794  0.4535
  824SOL    HW1 2653   2.504   1.399   1.122  1.9344  0.2054  0.1851
  824SOL    HW2 2654   2.416   1.493   1.222 -0.0015 -1.0461 -0.2741
  825SOL     OW 2655   3.224   0.894   1.821  0.1712  0.4305  0.1046
  825SOL    HW1 2656   3.180   0.982   1.841  0.6274  0.4747  0.9717
  825SOL    HW2 2657   3.156   0.831   1.784 -0.3490  0.8784  0.2874
  826SOL     OW 2658   2.287   4.493   0.409 -0.5406  0.7147 -0.1647
  826SOL    HW1 2659   2.230   4.420   0.371 -1.1410  1.6408 -1.0896
  826SOL    HW2 2660   2.264   4.504   0.506 -0.0452 -0.6735  0.1441
  827SOL     OW 2661   2.504   4.155   3.591 -0.1997  0.3637  0.0022
  827SOL    HW1 2662   2.544   4.246   3.579  1.3480 -0.2688  0.1290
  827SOL    HW2 2663   2.405   4.162   3.588 -0.1570  2.2584  1.4017
  828SOL     OW 2664   3.520   0.217   2.413 -0.2639  0.1076 -0.6898
  828SOL    HW1 2665   3.571   0.293   2.373  0.3548  0.4078  0.6145
  828SOL    HW2 2666   3.426   0.219   2.380  0.5568 -0.5904 -3.3271
  829SOL     OW 2667   2.513   1.274   1.014 -0.3507 -0.5924 -0.4743
  829SOL    HW1 2668   2.609   1.297   0.995 -0.4519  0.7891  0.4909
  829SOL    HW2 2669   2.506   1.177   1.037  1.1612 -0.3292  1.3865
  830SOL     OW 2670   2.550   0.970   2.418  0.0173  0.4949 -0.1819
  830SOL    HW1 2671   2.495   0.920   2.351 -0.5468  0.9883 -0.0932
  830SOL    HW2 2672   2.588   0.904   2.483 -0.0529  0.0926 -0.5406
  831SOL     OW 2673   2.193   0.257   0.805 -0.3987  0.2929  0.4558
  831SOL    HW1 2674   2.137   0.325   0.757 -2.1219  1.5428  3.8878
  831SOL    HW2 2675   2.148   0.168   0.800 -2.1736  1.0210  2.0850
  832SOL     OW 2676   2.063   4.083   2.420  0.4675 -0.1138  0.2312
  832SOL    HW1 2677   2.126   4.053   2.491  0.8863 -2.9867 -1.1930
  832SOL    HW2 2678   2.100   4.060   2.330 -1.8955 -0.5288 -0.7316
  833SOL     OW 2679   2.273   0.663   2.381 -0.3565 -0.3877  0.0636
  833SOL    HW1 2680   2.267   0.564   2.376 -0.9441 -0.3757  0.4295
  833SOL    HW2 2681   2.358   0.694   2.337 -0.4596 -1.0006 -0.5671
  834SOL     OW 2682   1.569   1.263   1.242 -0.3254  0.2705 -0.6911
  834SOL    HW1 2683   1.560   1.231   1.336  2.2607 -2.0525 -1.1313
  834SOL    HW2 2684   1.574   1.363   1.241 -1.3875  0.3874  1.4953
  835SOL     OW 2685   2.711   3.894   4.806 -0.1110  0.4365  0.1302
  835SOL    HW1 2686   2.768   3.858   4.732 -0.5935 -2.1112  0.9265
  835SOL    HW2 2687   2.616   3.895   4.776 -0.4310 -1.4631  0.9438
  836SOL     OW 2688   2.791   1.274   3.003 -0.1383  0.3863  0.1421
  836SOL    HW1 2689   2.694   1.254   3.022 -0.8614  0.3856 -3.1099
  836SOL    HW2 2690   2.843   1.188   3.006 -0.3824  0.2550  0.9678
  837SOL     OW 2691   2.266   0.963   4.164  0.1960 -0.5464  0.5903
  837SOL    HW1 2692   2.300   0.910   4.242  1.7640  1.1188  1.0872
  837SOL    HW2 2693   2.334   1.032   4.138 -0.7170 -0.3883 -1.6329
  838SOL     OW 2694   2.836   3.056   1.494  0.2019 -0.3008 -0.1165
  838SOL    HW1 2695   2.859   3.153   1.507 -0.0791 -0.0958 -1.0737
  838SOL    HW2 2696   2.799   3.020   1.580 -0.2922  0.6149  0.0698
  839SOL     OW 2697   2.014   1.803   0.441 -0.2074 -0.4204  0.2620
  839SOL    HW1 2698   2.062   1.878   0.395 -1.7747  1.1352  1.0468
  839SOL    HW2 2699   2.080   1.731   0.464  1.4842  1.0014  0.0854
  840SOL     OW 2700   3.705   3.363   1.820  0.1998  0.4052  0.5605
  840SOL    HW1 2701   3.615   3.320   1.817 -0.5602  1.3845  4.1330
  840SOL    HW2 2702   3.775   3.292   1.823 -0.6666 -0.4705  0.6944
  841SOL     OW 2703   2.711   3.117   0.363  0.1324 -0.3109 -0.3642
  841SOL    HW1 2704   2.744   3.067   0.283  0.0187  1.2140 -1.4088
  841SOL    HW2 2705   2.781   3.114   0.435  0.3993 -1.3641 -0.6544
  842SOL     OW 2706   2.586   1.792   3.349 -0.0624 -0.3559  0.1859
  842SOL    HW1 2707   2.679   1.807   3.315 -0.2362  1.6794  0.5051
  842SOL    HW2 2708   2.521   1.837   3.288 -0.9825 -2.5950 -0.6045
  843SOL     OW 2709   3.250   0.719   2.062  0.7020  0.4558 -0.0614
  843SOL    HW1 2710   3.163   0.675   2.086 -0.2832  2.6321  0.6034
  843SOL    HW2 2711   3.247   0.745   1.965  0.8785  0.0066 -0.1927
  844SOL     OW 2712   3.618   3.242   3.210  0.1154 -0.3452 -0.0001
  844SOL    HW1 2713   3.639   3.211   3.117  1.0699  1.2279 -0.3496
  844SOL    HW2 2714   3.677   3.193   3.275  1.9126  0.9260 -0.5787
  845SOL     OW 2715   2.701   1.652   2.477  0.1401 -0.1468 -0.0165
  845SOL    HW1 2716   2.683   1.697   2.390  0.2837 -0.0824 -0.0140
  845SOL    HW2 2717   2.648   1.567   2.482  1.0246 -0.7703 -0.6848
  846SOL     OW 2718   3.465   1.235   2.696  0.3832  0.1344  0.0724
  846SOL    HW1 2719   3.435   1.219   2.602 -0.4885  0.1196  0.3451
  846SOL    HW2 2720   3.533   1.166   2.721  0.8858  0.3535 -0.6613
  847SOL     OW 2721   2.867   1.467   2.141 -0.0496  0.2112 -0.2165
  847SOL    HW1 2722   2.960   1.484   2.174  0.2788 -1.3918 -0.2358
  847SOL    HW2 2723   2.825   1.554   2.116  1.8166  0.8787 -1.2189
  848SOL     OW 2724   3.178   4.066   1.437  0.8205  0.0970 -0.2610
  848SOL    HW1 2725   3.192   4.165   1.442  0.0590  0.1994 -0.0998
  848SOL    HW2 2726   3.262   4.020   1.467  1.3570  0.6854 -0.8276
  849SOL     OW 2727   3.151   3.399   1.620  0.4082  0.0254 -0.0919
  849SOL    HW1 2728   3.139   3.385   1.718 -0.6652 -0.9368 -0.3502
  849SOL    HW2 2729   3.168   3.496   1.603 -0.9696  0.4625  0.8965
  850SOL     OW 2730   1.849   2.387   1.129  0.3331 -0.1262 -0.0496
  850SOL    HW1 2731   1.827   2.368   1.033 -0.3405 -2.8702  0.5467
  850SOL    HW2 2732   1.774   2.438   1.171  0.0104 -0.1065 -0.6422
  851SOL     OW 2733   3.330   2.255   2.316 -0.2143 -0.0078 -0.1461
  851SOL    HW1 2734   3.336   2.155   2.321  2.3414  0.0666 -0.3936
  851SOL    HW2 2735   3.333   2.283   2.220  0.7596  0.3466 -0.0213
  852SOL     OW 2736   2.162   3.877   4.573 -0.0692  0.4871 -0.4513
  852SOL    HW1 2737   2.139   3.969   4.543 -1.2089  0.0242 -1.0634
  852SOL    HW2 2738   2.084   3.838   4.622  0.4923 -0.0562  0.0182
  853SOL     OW 2739   3.077   3.606   0.808  0.5657  0.7882 -0.2957
  853SOL    HW1 2740   3.091   3.699   0.843 -0.7686  0.9768 -0.1971
  853SOL    HW2 2741   3.048   3.547   0.883 -3.1410  1.3826 -1.0411
  854SOL     OW 2742   2.093   0.021   1.155 -0.0078 -0.4665  0.5304
  854SOL    HW1 2743   2.164   0.084   1.187  0.4147 -0.1226 -0.9988
  854SOL    HW2 2744   2.135  -0.066   1.131 -0.0814 -0.2472 -0.4274
  855SOL     OW 2745   3.100   2.791   4.194 -0.1290  0.5686 -0.2485
  855SOL    HW1 2746   3.075   2.837   4.279 -1.0699  0.8589 -0.6685
  855SOL    HW2 2747   3.042   2.710   4.182  0.0099  0.5188 -0.6058
  856SOL     OW 2748   1.420   1.813   2.247  0.5932 -0.1123 -0.0290
  856SOL    HW1 2749   1.399   1.731   2.193  0.6859 -1.1838  1.4827
  856SOL    HW2 2750   1.505   1.797   2.298  0.6833  0.9977  0.1940
  857SOL     OW 2751   1.780   4.228   0.770  0.1246 -0.3961  0.3473
  857SOL    HW1 2752   1.741   4.175   0.846 -0.2660 -1.5718 -0.6478
  857SOL    HW2 2753   1.818   4.165   0.702 -0.2016  0.6125 -0.7949
  858SOL     OW 2754   1.679   3.716   0.014  0.1156 -0.6806  0.1973
  858SOL    HW1 2755   1.598   3.663   0.037  0.5698 -1.3548  0.2792
  858SOL    HW2 2756   1.697   3.783   0.086  1.1407 -2.3205  1.5377
  859SOL     OW 2757   3.349   2.601   1.864  0.4497  0.0839 -0.5501
  859SOL    HW1 2758   3.417   2.603   1.791 -0.8968  2.7126 -1.9085
  859SOL    HW2 2759   3.330   2.695   1.893 -1.9698 -0.6065  0.3524
  860SOL     OW 2760   2.495   3.265   0.106 -0.3102 -0.4064  0.4522
  860SOL    HW1 2761   2.530   3.172   0.094 -1.9340 -0.8293 -1.5484
  860SOL    HW2 2762   2.559   3.330   0.064 -0.3890 -0.8856 -0.4394
  861SOL     OW 2763   1.056   2.744   2.130 -0.2597  0.2416 -0.6242
  861SOL    HW1 2764   1.102   2.832   2.113  0.8144 -0.4046 -1.1992
  861SOL    HW2 2765   0.963   2.748   2.095 -0.4447  1.3657 -0.0489
  862SOL     OW 2766   3.357   2.645   1.300  0.3334  0.3419 -0.6984
  862SOL    HW1 2767   3.305   2.668   1.218  0.4000  0.1527 -0.7949
  862SOL    HW2 2768   3.395   2.553   1.290  0.2921  0.2932 -0.4320
  863SOL     OW 2769   3.193   3.474   4.500 -0.1800 -0.0145 -0.3536
  863SOL    HW1 2770   3.115   3.431   4.455 -0.5013  1.0654 -0.8680
  863SOL    HW2 2771   3.171   3.570   4.519  1.2174  0.4751 -1.0587
  864SOL     OW 2772   2.000   1.572   1.640 -0.5519  0.1658  0.5488
  864SOL    HW1 2773   1.910   1.595   1.676 -0.1956  1.2353  0.7981
  864SOL    HW2 2774   2.056   1.534   1.714 -0.5350  0.2513  0.5791
  865SOL     OW 2775   1.959   1.547   3.166  0.7088 -0.2037 -0.4205
  865SOL    HW1 2776   1.962   1.447   3.168  0.6961 -0.2069 -0.5679
  865SOL    HW2 2777   1.939   1.577   3.073  0.1709 -0.0786 -0.2665
  866SOL     OW 2778   3.081   0.686   2.723  0.0382  0.1934 -0.8422
  866SOL    HW1 2779   3.150   0.616   2.709 -1.2870 -1.3731  0.0887
  866SOL    HW2 2780   3.040   0.709   2.635  1.5567  0.9961 -1.3750
  867SOL     OW 2781   2.189   0.470   1.598  0.1151  0.9023  0.5148
  867SOL    HW1 2782   2.181   0.564   1.633  1.1394  1.1389  0.1520
  867SOL    HW2 2783   2.282   0.455   1.566  0.0321 -0.3327  0.7924
  868SOL     OW 2784   1.894   3.454   4.171  0.6246  0.3462 -0.8115
  868SOL    HW1 2785   1.923   3.368   4.213  1.3346  1.0780  0.2509
  868SOL    HW2 2786   1.821   3.494   4.226 -1.6665 -0.8550 -2.7741
  869SOL     OW 2787   1.470   2.290   2.641 -0.2039 -0.4152  0.0363
  869SOL    HW1 2788   1.544   2.255   2.584 -0.9809 -1.1053 -0.5791
  869SOL    HW2 2789   1.472   2.390   2.639 -0.4295 -0.4120 -1.5383
  870SOL     OW 2790   3.194   1.907   4.300 -0.4211  0.2186  0.1236
  870SOL    HW1 2791   3.284   1.903   4.255  0.0226  0.6213  0.9542
  870SOL    HW2 2792   3.160   2.001   4.296 -0.6694  0.1264  0.0736
  871SOL     OW 2793   1.520   4.567   1.511 -0.1561  0.5361  1.0437
  871SOL    HW1 2794   1.538   4.627   1.588  0.3708 -0.1201  1.4426
  871SOL    HW2 2795   1.488   4.478   1.544 -0.3215  0.3806  0.4927
  872SOL     OW 2796   3.235   3.357   1.958 -0.5799 -0.0443 -0.5568
  872SOL    HW1 2797   3.215   3.359   2.056 -3.1157 -1.3674 -0.9608
  872SOL    HW2 2798   3.253   3.450   1.927 -2.4363  0.8289  0.7237
  873SOL     OW 2799   2.197   4.220   2.962  0.3621  0.6021 -0.0488
  873SOL    HW1 2800   2.159   4.207   3.053 -1.3623 -0.2122 -0.8294
  873SOL    HW2 2801   2.294   4.197   2.963 -0.0209 -1.1598  1.2010
  874SOL     OW 2802   2.153   3.004   1.626 -0.4193 -0.7265  0.5041
  874SOL    HW1 2803   2.146   3.002   1.725  0.5984 -0.6988  0.5816
  874SOL    HW2 2804   2.229   2.946   1.597 -0.0209  0.1259 -0.1933
  875SOL     OW 2805   3.007   4.973   3.493 -0.2459  0.0902  0.1901
  875SOL    HW1 2806   2.960   5.041   3.549  2.0652  0.7591  1.4434
  875SOL    HW2 2807   2.983   4.882   3.525  0.3621  0.4475  1.7349
  876SOL     OW 2808   1.603   1.548   1.266 -0.0450  0.1894 -0.1336
  876SOL    HW1 2809   1.627   1.639   1.232 -0.0565  0.6728  1.1092
  876SOL    HW2 2810   1.574   1.555   1.361  0.0423 -1.1322  0.0085
  877SOL     OW 2811   3.026   3.669   0.318  0.4179 -0.3369 -0.5474
  877SOL    HW1 2812   2.938   3.625   0.297  0.6982 -0.4216 -1.6225
  877SOL    HW2 2813   3.014   3.731   0.395 -0.2946 -1.3003  0.1362
  878SOL     OW 2814   2.766   2.600   3.644 -0.6105  0.7937 -0.2764
  878SOL    HW1 2815   2.860   2.605   3.609 -0.0477  1.6975  1.2434
  878SOL    HW2 2816   2.731   2.507   3.633  0.5259  0.4081 -0.7439
  879SOL     OW 2817   1.713   1.801   1.223  0.4952 -0.3931  0.0628
  879SOL    HW1 2818   1.649   1.865   1.181 -0.1099 -1.9311 -1.4722
  879SOL    HW2 2819   1.789   1.852   1.263  0.0546  1.2720 -1.1199
  880SOL     OW 2820   2.172   3.340   1.361 -0.7482 -0.0106  0.0564
  880SOL    HW1 2821   2.228   3.397   1.421  1.9855 -1.7201 -0.6780
  880SOL    HW2 2822   2.146   3.393   1.281  2.1462  0.2575 -0.8521
  881SOL     OW 2823   2.728   4.759   1.701 -0.0223  0.1610  0.3473
  881SOL    HW1 2824   2.748   4.857   1.702 -0.6577  0.3002  0.9466
  881SOL    HW2 2825   2.634   4.745   1.669  0.9198 -0.4619 -2.4299
  882SOL     OW 2826   3.699   3.593   2.626  0.2127 -0.4890  0.3531
  882SOL    HW1 2827   3.793   3.603   2.591  0.4674 -0.9235  0.9008
  882SOL    HW2 2828   3.648   3.533   2.565  0.0990  0.2475 -0.2943
  883SOL     OW 2829   1.423   1.776   1.759  0.1362  0.1051 -0.0081
  883SOL    HW1 2830   1.521   1.786   1.774  0.2025  1.0087 -0.9645
  883SOL    HW2 2831   1.376   1.857   1.794 -0.3095 -0.4431  0.6958
  884SOL     OW 2832   1.980   3.962   4.903 -0.0321 -0.6610 -0.5813
  884SOL    HW1 2833   2.038   4.033   4.864  0.2079 -0.0521  0.8158
  884SOL    HW2 2834   2.028   3.875   4.900  0.0505 -0.5966 -1.4455
  885SOL     OW 2835   3.142   0.376   4.119 -0.1520 -0.4028  0.7094
  885SOL    HW1 2836   3.138   0.276   4.110 -0.7247 -0.2736 -0.9164
  885SOL    HW2 2837   3.229   0.403   4.159 -0.1266 -1.5641  1.4759
  886SOL     OW 2838   3.302   2.140   4.570  0.4425  0.0743  0.0268
  886SOL    HW1 2839   3.399   2.156   4.554  0.5123  0.0689  0.4423
  886SOL    HW2 2840   3.250   2.174   4.491  0.6971  1.0760  0.2730
  887SOL     OW 2841   1.837   4.918   2.332 -0.2528  0.1123  0.0049
  887SOL    HW1 2842   1.837   4.967   2.245  1.6433 -2.1309 -1.3856
  887SOL    HW2 2843   1.784   4.834   2.322  2.7873 -1.9558 -0.2531
  888SOL     OW 2844   2.469   1.892   3.850  0.0593  0.3876 -0.4199
  888SOL    HW1 2845   2.414   1.966   3.889 -1.3098  0.4805 -2.3646
  888SOL    HW2 2846   2.437   1.805   3.886  0.1793  0.5991  0.2005
  889SOL     OW 2847   3.112   2.404   1.306 -0.3068 -0.4053 -0.4943
  889SOL    HW1 2848   3.099   2.462   1.226  0.6851 -2.4481 -2.2136
  889SOL    HW2 2849   3.024   2.392   1.353 -1.1112 -0.0067 -1.8597
  890SOL     OW 2850   1.534   1.981   1.087  0.0330 -0.6074 -0.2227
  890SOL    HW1 2851   1.493   2.015   1.003 -0.2408  1.5556  0.7273
  890SOL    HW2 2852   1.560   2.058   1.145 -0.8159 -2.0102  2.1803
  891SOL     OW 2853   3.133   4.201   2.976 -0.1367 -0.2601 -0.2603
  891SOL    HW1 2854   3.042   4.238   2.991  0.1295  0.1364  0.4693
  891SOL    HW2 2855   3.127   4.115   2.926 -1.0564 -1.2192  1.4223
  892SOL     OW 2856   1.934   4.627   1.944 -0.0643  0.1452 -0.0305
  892SOL    HW1 2857   2.026   4.664   1.931  0.7874 -1.9385 -0.3880
  892SOL    HW2 2858   1.925   4.543   1.890 -1.1457 -1.2853  2.2306
  893SOL     OW 2859   2.018   0.693   3.478  0.0461 -0.0803 -0.2889
  893SOL    HW1 2860   1.985   0.661   3.567 -1.7804  0.0071 -0.8793
  893SOL    HW2 2861   2.016   0.793   3.476 -0.1850 -0.0865 -0.5020
  894SOL     OW 2862   2.404   3.257   2.053 -0.3301 -0.2355  0.1429
  894SOL    HW1 2863   2.492   3.293   2.083 -1.3980  2.0204  0.8472
  894SOL    HW2 2864   2.411   3.226   1.959  1.3261 -0.6373  0.3609
  895SOL     OW 2865   2.705   0.317   0.774 -0.4586 -0.0834  0.2482
  895SOL    HW1 2866   2.706   0.402   0.828 -3.1482  0.7458 -0.8652
  895SOL    HW2 2867   2.631   0.259   0.806 -0.3897 -0.7833 -0.8307
  896SOL     OW 2868   2.201   1.485   1.857  0.1594  0.2904 -0.3643
  896SOL    HW1 2869   2.282   1.433   1.828  0.6625  1.0360 -0.3203
  896SOL    HW2 2870   2.169   1.450   1.945  0.0913 -0.3833 -0.6537
  897SOL     OW 2871   1.346   4.049   1.707  0.1812  0.1037  0.0377
  897SOL    HW1 2872   1.282   4.113   1.748 -0.6800 -0.4125 -0.4826
  897SOL    HW2 2873   1.357   3.970   1.767 -2.8373 -1.7503 -1.6253
  898SOL     OW 2874   1.947   2.593   4.633  0.7046  0.3595  0.4722
  898SOL    HW1 2875   2.019   2.534   4.670 -0.7132  0.4243  3.7474
  898SOL    HW2 2876   1.869   2.537   4.605  1.1337  0.4353 -0.9443
  899SOL     OW 2877   1.466   2.233   2.206  0.5689  0.4641  0.0386
  899SOL    HW1 2878   1.413   2.312   2.175 -0.4222 -0.5577 -0.9807
  899SOL    HW2 2879   1.416   2.185   2.278  0.4575 -0.0744 -0.3927
  900SOL     OW 2880   1.934   1.310   1.904 -0.2412  0.0569  0.3548
  900SOL    HW1 2881   2.007   1.340   1.843 -0.8892  0.1097 -0.4135
  900SOL    HW2 2882   1.849   1.302   1.852 -0.9074  0.5239  1.3517
  901SOL     OW 2883   3.683   1.733   3.207 -0.2420  0.4590 -0.2694
  901SOL    HW1 2884   3.659   1.827   3.185 -1.4044  0.3106  0.2472
  901SOL    HW2 2885   3.657   1.674   3.130  1.3421  0.6519 -0.9792
  902SOL     OW 2886   2.742   1.200   4.575 -0.0749  0.0904 -0.3137
  902SOL    HW1 2887   2.706   1.257   4.649  1.4881 -1.3649  1.6577
  902SOL    HW2 2888   2.666   1.170   4.517 -1.1971  2.2337 -0.0647
  903SOL     OW 2889   3.542   3.483   3.088 -0.0294 -0.1988  0.2114
  903SOL    HW1 2890   3.560   3.459   2.993  0.2784 -0.1859  0.2647
  903SOL    HW2 2891   3.575   3.410   3.147 -0.1298 -0.1622  0.3128
  904SOL     OW 2892   3.259   0.465   2.700  0.4650 -0.0456 -0.0563
  904SOL    HW1 2893   3.216   0.391   2.649  0.7560 -0.3228  0.0923
  904SOL    HW2 2894   3.307   0.427   2.779 -0.1712  0.4023  0.5581
  905SOL     OW 2895   1.856   2.211   4.664  0.2309 -0.3844 -0.2073
  905SOL    HW1 2896   1.859   2.190   4.762 -5.1713 -0.9840  0.1037
  905SOL    HW2 2897   1.855   2.125   4.612 -1.4214 -0.2782 -0.3961
  906SOL     OW 2898   2.998   2.126   1.275 -0.1900  0.2507  0.6561
  906SOL    HW1 2899   2.998   2.124   1.175  0.2522 -2.5871  0.6473
  906SOL    HW2 2900   3.041   2.211   1.306 -1.0388  1.5727 -1.5036
  907SOL     OW 2901   2.622   2.279   0.821  0.2683 -0.7518  0.0709
  907SOL    HW1 2902   2.537   2.295   0.870 -0.2190 -0.7720 -0.7576
  907SOL    HW2 2903   2.656   2.188   0.844 -1.4221 -1.9095 -1.7361
  908SOL     OW 2904   1.791   1.543   3.682 -0.3898  0.6389 -0.4445
  908SOL    HW1 2905   1.856   1.565   3.755 -1.1068  2.0622 -0.2048
  908SOL    HW2 2906   1.724   1.617   3.674 -1.0088 -0.0325 -1.7856
  909SOL     OW 2907   2.097   3.546   4.585 -0.8668  0.1693  0.5086
  909SOL    HW1 2908   2.141   3.456   4.594  0.0099  0.5017 -0.3456
  909SOL    HW2 2909   2.115   3.583   4.494 -1.7904  0.9263  0.6155
  910SOL     OW 2910   1.911   2.091   4.198 -0.1017  0.1577 -0.1233
  910SOL    HW1 2911   1.923   1.992   4.204  0.9829  0.1240 -2.0060
  910SOL    HW2 2912   1.952   2.134   4.278  1.1978 -0.8291 -0.2168
  911SOL     OW 2913   3.212   4.442   2.913 -0.2502  0.2711  0.1757
  911SOL    HW1 2914   3.188   4.346   2.921  0.4390  0.1858  1.7031
  911SOL    HW2 2915   3.241   4.476   3.003 -1.2620  2.1174 -0.1481
  912SOL     OW 2916   2.481   3.691   1.085  0.4329 -0.2223  0.1569
  912SOL    HW1 2917   2.413   3.638   1.035 -0.3413  0.5188  0.4202
  912SOL    HW2 2918   2.572   3.650   1.070  0.1276 -0.4025 -1.2958
  913SOL     OW 2919   2.469   1.915   0.244  0.5891 -0.1430  0.2843
  913SOL    HW1 2920   2.533   1.847   0.207 -1.4776 -1.5453 -0.9128
  913SOL    HW2 2921   2.458   1.988   0.177 -0.3752 -0.8216 -0.3257
  914SOL     OW 2922   3.824   2.888   3.601 -0.0690 -0.3335 -0.4745
  914SOL    HW1 2923   3.865   2.801   3.572  1.0089 -0.3510  0.9626
  914SOL    HW2 2924   3.866   2.916   3.688 -1.4257  0.9067 -0.1887
  915SOL     OW 2925   2.622   4.928   2.739  0.7724 -0.0200  0.1297
  915SOL    HW1 2926   2.544   4.867   2.730 -0.4076  1.3900  0.3732
  915SOL    HW2 2927   2.682   4.894   2.812  0.4014 -1.1339 -0.0678
  916SOL     OW 2928   2.415   2.991   1.883  0.0864  0.3968 -0.5313
  916SOL    HW1 2929   2.321   3.013   1.910  0.1781  0.3242 -0.1429
  916SOL    HW2 2930   2.416   2.965   1.787 -0.0158  2.1490 -1.0430
  917SOL     OW 2931   1.883   3.383   0.226  0.6134 -0.5104 -0.3744
  917SOL    HW1 2932   1.880   3.446   0.148 -0.6363  0.9028  0.7536
  917SOL    HW2 2933   1.856   3.292   0.196  1.0439 -0.2037 -1.7672
  918SOL     OW 2934   2.635   2.652   1.937 -0.3038  0.1256 -0.0927
  918SOL    HW1 2935   2.629   2.718   2.011 -1.5850 -0.1978  0.1110
  918SOL    HW2 2936   2.731   2.624   1.926 -0.1949 -0.6103  2.1568
  919SOL     OW 2937   3.038   2.448   4.526  0.1055 -0.0110 -0.2104
  919SOL    HW1 2938   2.961   2.425   4.466  1.0247 -0.2053 -1.3659
  919SOL    HW2 2939   3.022   2.538   4.567 -0.5106  0.1846 -0.8541
  920SOL     OW 2940   1.922   2.182   4.934 -0.2254 -0.3228  0.7975
  920SOL    HW1 2941   1.925   2.248   5.009 -0.2902 -0.6522  1.0949
  920SOL    HW2 2942   1.921   2.089   4.972 -0.5172 -0.4896  0.3972
  921SOL     OW 2943   2.159   2.614   0.618 -0.4889  0.2439 -0.0543
  921SOL    HW1 2944   2.113   2.581   0.535 -0.5399  0.2102 -0.0118
  921SOL    HW2 2945   2.182   2.711   0.606  1.0567 -0.1782 -0.8129
  922SOL     OW 2946   2.777   3.658   1.826 -0.2668 -0.2790  0.2082
  922SOL    HW1 2947   2.700   3.636   1.886 -0.8605  0.8754 -0.1079
  922SOL    HW2 2948   2.760   3.745   1.780  1.5038  0.3258  0.6054
  923SOL     OW 2949   2.903   2.619   4.105 -0.1685  0.4642 -0.2212
  923SOL    HW1 2950   2.875   2.550   4.171  1.0371 -1.5379 -1.7099
  923SOL    HW2 2951   2.824   2.643   4.047 -0.3356 -0.4857 -0.3969
  924SOL     OW 2952   2.873   2.412   1.456  0.1282  0.6302 -0.4158
  924SOL    HW1 2953   2.826   2.358   1.526 -0.4278 -1.4429 -2.3044
  924SOL    HW2 2954   2.821   2.497   1.440 -0.5720  0.4091  0.5854
  925SOL     OW 2955   3.670   1.742   3.791  0.0089 -0.3299 -0.0383
  925SOL    HW1 2956   3.716   1.703   3.871  1.2535 -0.4510 -0.7816
  925SOL    HW2 2957   3.572   1.727   3.799 -0.0496  0.8580  2.1059
  926SOL     OW 2958   2.502   2.368   0.208 -0.0632  0.1275  0.2352
  926SOL    HW1 2959   2.517   2.271   0.188  0.7508  0.2381  0.2844
  926SOL    HW2 2960   2.445   2.377   0.290  0.1587 -0.3057  0.4362
  927SOL     OW 2961   1.980   4.575   3.265 -0.1449  0.2082 -0.4267
  927SOL    HW1 2962   2.035   4.638   3.209  1.1509 -0.2655  0.2547
  927SOL    HW2 2963   1.917   4.526   3.206 -0.6267  1.5730 -1.0804
  928SOL     OW 2964   2.204   4.519   4.269 -0.7130  0.4923 -0.1214
  928SOL    HW1 2965   2.140   4.489   4.198 -0.8738 -3.1773  1.3371
  928SOL    HW2 2966   2.291   4.544   4.226 -1.1321 -0.5779 -1.7185
  929SOL     OW 2967   2.844   2.430   4.310  0.2584 -0.4290 -0.1819
  929SOL    HW1 2968   2.827   2.337   4.278 -2.0346 -0.1288 -0.0526
  929SOL    HW2 2969   2.778   2.452   4.381  1.4807  0.9397  0.5716
  930SOL     OW 2970   3.180   0.942   4.112 -0.0547 -0.7656 -0.0335
  930SOL    HW1 2971   3.236   1.024   4.104  0.0550 -0.9690 -1.7033
  930SOL    HW2 2972   3.087   0.963   4.082  0.1304 -1.3839 -1.0815
  931SOL     OW 2973   3.738   3.203   2.727  0.3355  0.0473 -0.1794
  931SOL    HW1 2974   3.673   3.134   2.693  0.3994 -0.7996  1.3328
  931SOL    HW2 2975   3.815   3.210   2.663  0.4939 -1.5363 -0.1927
  932SOL     OW 2976   2.935   2.932   1.929 -0.3819  0.1515 -0.2767
  932SOL    HW1 2977   2.883   2.868   1.985 -1.8773  0.1630 -1.5683
  932SOL    HW2 2978   3.019   2.887   1.898  0.3366  0.0599  1.6819
  933SOL     OW 2979   3.159   1.730   0.034  0.5050  0.1300  0.1715
  933SOL    HW1 2980   3.064   1.752   0.056  0.1429 -0.8616 -0.3394
  933SOL    HW2 2981   3.182   1.641   0.072  0.0903 -1.2984 -2.6803
  934SOL     OW 2982   2.113   3.730   4.894 -0.3234  0.6231  0.0217
  934SOL    HW1 2983   2.162   3.670   4.832 -1.1054 -0.5311  0.4807
  934SOL    HW2 2984   2.174   3.757   4.969 -0.6896 -1.9350  1.3585
  935SOL     OW 2985   2.634   4.639   3.727  0.2809 -0.2766 -0.1676
  935SOL    HW1 2986   2.723   4.595   3.743 -0.2742 -0.9186  1.3095
  935SOL    HW2 2987   2.619   4.708   3.797  1.0733  2.2996 -2.3619
  936SOL     OW 2988   2.308   3.829   0.075  0.6206 -0.3125 -0.4323
  936SOL    HW1 2989   2.340   3.747   0.121 -0.8243 -1.2318 -1.0034
  936SOL    HW2 2990   2.387   3.879   0.037  1.6182 -0.7509  0.9760
  937SOL     OW 2991   1.827   3.469   2.113 -0.1196  0.1309 -0.1530
  937SOL    HW1 2992   1.771   3.446   2.192  1.0638 -0.0326  0.6589
  937SOL    HW2 2993   1.915   3.506   2.144  1.4531 -2.4203 -1.2941
  938SOL     OW 2994   2.049   1.112   0.668  0.1222 -0.2708  1.0159
  938SOL    HW1 2995   2.003   1.028   0.695 -1.1577 -0.0834 -0.4692
  938SOL    HW2 2996   1.998   1.190   0.704 -0.4137 -0.0803 -0.1076
  939SOL     OW 2997   1.994   0.693   3.775  0.2534 -0.4055 -0.1658
  939SOL    HW1 2998   1.902   0.673   3.811 -0.6807 -0.2107 -2.2834
  939SOL    HW2 2999   2.044   0.747   3.842 -1.2240 -0.3954  0.9994
  940SOL     OW 3000   1.990   4.421   0.731 -0.2930  0.1880 -0.1250
  940SOL    HW1 3001   1.947   4.500   0.774  0.1265  1.1434 -1.3755
  940SOL    HW2 3002   2.003   4.349   0.799 -0.5174  1.2645  1.0975
  941SOL     OW 3003   2.136   3.173   3.915  0.2683 -0.6167 -0.2405
  941SOL    HW1 3004   2.177   3.238   3.979 -1.4181 -1.1537  1.4816
  941SOL    HW2 3005   2.063   3.123   3.962 -1.7489 -0.3296 -2.8531
  942SOL     OW 3006   2.383   2.909   3.711 -0.1050 -0.5255 -0.5748
  942SOL    HW1 3007   2.314   2.836   3.709  0.2218 -0.9055  0.9119
  942SOL    HW2 3008   2.464   2.879   3.662  0.3460 -1.5286  0.7385
  943SOL     OW 3009   3.318   4.792   2.688 -0.3596  0.1233  0.7097
  943SOL    HW1 3010   3.405   4.832   2.718  0.0569  0.2954 -0.6575
  943SOL    HW2 3011   3.326   4.692   2.689  0.4368  0.1426 -0.9622
  944SOL     OW 3012   2.919   1.348   0.568 -0.0151 -0.4270 -0.2829
  944SOL    HW1 3013   2.860   1.402   0.627  0.1530 -0.7529  0.1933
  944SOL    HW2 3014   3.014   1.375   0.583  0.1567 -1.4106  0.5909
  945SOL     OW 3015   2.641   2.348   3.269 -0.1999 -0.4328  0.2464
  945SOL    HW1 3016   2.732   2.370   3.303  0.0728  1.8389 -1.6729
  945SOL    HW2 3017   2.573   2.390   3.329  0.1228  0.1762  0.1945
  946SOL     OW 3018   1.993   2.333   3.500  0.3344 -0.1467  0.2420
  946SOL    HW1 3019   1.920   2.308   3.437  0.9413  0.6432 -0.8172
  946SOL    HW2 3020   1.994   2.269   3.577 -1.4554 -0.1643  0.2874
  947SOL     OW 3021   2.044   2.249   1.284  0.3017  0.2731 -0.0518
  947SOL    HW1 3022   2.014   2.296   1.368 -1.2790 -0.3333 -0.2568
  947SOL    HW2 3023   2.002   2.293   1.205  0.4429 -0.2143 -0.4031
  948SOL     OW 3024   3.312   3.142   0.613  0.2553 -0.2513  0.2438
  948SOL    HW1 3025   3.271   3.232   0.599  0.1835 -0.4415 -0.8853
  948SOL    HW2 3026   3.327   3.127   0.711  1.3837  1.4697  0.3692
  949SOL     OW 3027   3.214   2.995   3.242 -0.2013  0.2532  0.1961
  949SOL    HW1 3028   3.169   3.083   3.259  1.1286  1.0317 -0.1903
  949SOL    HW2 3029   3.175   2.954   3.160 -0.6972  0.5739  0.2683
  950SOL     OW 3030   3.748   3.309   3.548  0.0554  0.0934 -0.0852
  950SOL    HW1 3031   3.742   3.243   3.474  0.7244 -0.4360  0.3164
  950SOL    HW2 3032   3.661   3.311   3.598  0.3187 -1.1974  0.4802
  951SOL     OW 3033   3.179   3.623   4.150 -0.7781  0.3052  0.2839
  951SOL    HW1 3034   3.091   3.594   4.187 -0.0679 -1.4618  0.6811
  951SOL    HW2 3035   3.243   3.546   4.153  0.9513  1.7002  0.5174
  952SOL     OW 3036   1.936   0.599   2.235  0.5416  0.3871  0.0338
  952SOL    HW1 3037   1.872   0.522   2.234  0.5600  0.3672  0.3067
  952SOL    HW2 3038   1.908   0.663   2.306 -0.6507  1.6376 -1.4726
  953SOL     OW 3039   1.452   3.826   2.271  0.9753 -0.5990 -0.5977
  953SOL    HW1 3040   1.494   3.806   2.360 -0.4162 -0.0297  0.2180
  953SOL    HW2 3041   1.449   3.925   2.258 -0.5251 -0.6048 -0.4112
  954SOL     OW 3042   2.672   3.758   3.848  0.1637  1.1428 -0.2298
  954SOL    HW1 3043   2.701   3.812   3.928 -1.9842  0.8457  0.8086
  954SOL    HW2 3044   2.671   3.817   3.768  2.0556  1.5303 -0.0340
  955SOL     OW 3045   2.539   3.068   1.431  0.4042 -0.3356 -0.4418
  955SOL    HW1 3046   2.508   3.096   1.341  1.2277  2.0139 -0.0624
  955SOL    HW2 3047   2.635   3.092   1.442  0.0604  0.3793  1.3926
  956SOL     OW 3048   2.013   2.068   2.408 -0.1279  0.6343  0.0275
  956SOL    HW1 3049   2.049   1.978   2.384 -1.0492  0.5601 -1.1347
  956SOL    HW2 3050   1.927   2.083   2.361 -2.5200  0.1920  3.8303
  957SOL     OW 3051   2.894   1.833   0.108  0.0405  0.2079 -0.1741
  957SOL    HW1 3052   2.903   1.905   0.177  0.7977 -0.1634  0.1208
  957SOL    HW2 3053   2.908   1.874   0.017  0.3423  0.4598 -0.0179
  958SOL     OW 3054   3.309   2.461   4.457 -0.5907 -0.4656  0.1983
  958SOL    HW1 3055   3.212   2.444   4.475 -0.3081 -0.0965  2.3683
  958SOL    HW2 3056   3.330   2.556   4.481  0.7242 -1.1514  1.9698
  959SOL     OW 3057   2.903   0.491   4.114  0.3044 -0.1859  0.2093
  959SOL    HW1 3058   2.892   0.571   4.173 -0.3637 -0.1793  0.0895
  959SOL    HW2 3059   2.992   0.449   4.131  1.0119  1.0584 -0.3138
  960SOL     OW 3060   1.720   3.693   2.772 -0.4464 -0.1633 -0.1528
  960SOL    HW1 3061   1.693   3.625   2.840 -1.0691 -0.1511 -0.3738
  960SOL    HW2 3062   1.751   3.776   2.818 -1.4469  0.0662  0.1252
  961SOL     OW 3063   1.586   4.330   0.626  0.2454 -0.0954  0.0006
  961SOL    HW1 3064   1.671   4.293   0.662  0.8885  0.0424 -1.3216
  961SOL    HW2 3065   1.517   4.329   0.698  1.3225 -0.3108  1.0602
  962SOL     OW 3066   2.443   4.886   3.036  0.2210  0.4488 -0.0118
  962SOL    HW1 3067   2.396   4.969   3.007  0.0531  0.2874 -0.2129
  962SOL    HW2 3068   2.475   4.897   3.130  1.2687  1.1867 -0.4419
  963SOL     OW 3069   2.107   2.564   3.424 -0.1593  0.5544 -0.6105
  963SOL    HW1 3070   2.045   2.618   3.368  0.2857  0.2767 -1.3811
  963SOL    HW2 3071   2.058   2.484   3.459 -0.8832  1.5399  0.7195
  964SOL     OW 3072   2.293   0.646   4.068  0.1132 -0.4149 -0.1674
  964SOL    HW1 3073   2.241   0.721   4.028  0.5136  0.5058  1.0006
  964SOL    HW2 3074   2.247   0.560   4.048 -1.8002  0.3489  0.7095
  965SOL     OW 3075   2.103   1.713   0.823  0.2785  0.1820  0.0543
  965SOL    HW1 3076   2.134   1.646   0.755 -0.6970  0.7598 -0.9902
  965SOL    HW2 3077   2.043   1.668   0.889 -0.5324  0.0437 -0.7557
  966SOL     OW 3078   3.450   2.013   4.171 -0.3257 -0.0137 -0.1779
  966SOL    HW1 3079   3.461   2.085   4.240  0.3121  0.0703 -0.3556
  966SOL    HW2 3080   3.523   1.946   4.182 -0.8856 -0.6070 -0.0531
  967SOL     OW 3081   1.661   2.666   0.543 -0.6188  0.3038 -0.1216
  967SOL    HW1 3082   1.722   2.632   0.614 -2.1668  0.0755  1.1497
  967SOL    HW2 3083   1.618   2.589   0.495 -1.3027  0.4571  0.2393
  968SOL     OW 3084   2.177   4.647   1.433  0.3284  0.1590 -0.0131
  968SOL    HW1 3085   2.136   4.595   1.508  1.0428  0.1621  0.3887
  968SOL    HW2 3086   2.246   4.708   1.470  0.4022  0.4590 -0.6362
  969SOL     OW 3087   2.510   0.321   3.903  0.4192 -0.3326  0.4514
  969SOL    HW1 3088   2.557   0.365   3.827 -0.7235  0.6096  0.2640
  969SOL    HW2 3089   2.519   0.222   3.894 -0.8514 -0.3065 -1.7109
  970SOL     OW 3090   2.600   1.380   0.497  0.2313  0.1215  0.5768
  970SOL    HW1 3091   2.636   1.409   0.586  0.4244  0.6001  0.3460
  970SOL    HW2 3092   2.663   1.410   0.425 -0.5684  0.8727  0.1744
  971SOL     OW 3093   2.053   4.076   3.781  0.3243  0.0192  0.2625
  971SOL    HW1 3094   2.023   4.061   3.686 -0.4267  2.9773 -0.0885
  971SOL    HW2 3095   1.975   4.062   3.842 -0.3098  1.9852 -0.0343
  972SOL     OW 3096   3.364   2.972   4.784  0.2819  0.4272  0.7734
  972SOL    HW1 3097   3.373   2.876   4.813 -0.6730  0.3121  0.7229
  972SOL    HW2 3098   3.357   2.976   4.685 -0.9205  0.4260  0.8411
  973SOL     OW 3099   2.490   1.130   0.571  0.0235 -0.5938 -0.7659
  973SOL    HW1 3100   2.529   1.208   0.523  0.9045 -0.6345 -0.1303
  973SOL    HW2 3101   2.555   1.054   0.569 -1.0673 -1.5423 -1.9118
  974SOL     OW 3102   2.588   4.572   2.616  0.0315 -0.3704  0.0982
  974SOL    HW1 3103   2.548   4.659   2.645 -1.3091 -0.5657 -1.0793
  974SOL    HW2 3104   2.602   4.514   2.696  1.7494  1.2071  1.0165
  975SOL     OW 3105   2.777   2.307   2.763 -0.2877  0.4890  0.1258
  975SOL    HW1 3106   2.688   2.329   2.804 -1.3791  0.2864 -1.9865
  975SOL    HW2 3107   2.765   2.233   2.697  1.9013 -1.0960  1.3873
  976SOL     OW 3108   2.454   3.852   1.817 -0.2426 -0.5129  0.5726
  976SOL    HW1 3109   2.418   3.854   1.911 -1.0478  0.3265  0.2576
  976SOL    HW2 3110   2.432   3.938   1.771 -0.9251 -1.3778 -0.7863
  977SOL     OW 3111   3.175   0.004   3.262  0.2570  0.3991 -0.1442
  977SOL    HW1 3112   3.183   0.097   3.299 -3.9228  1.8469 -2.2654
  977SOL    HW2 3113   3.104  -0.045   3.312  0.2212 -0.5335 -1.0780
  978SOL     OW 3114   1.488   2.882   1.478  0.8219  0.5542 -0.8358
  978SOL    HW1 3115   1.432   2.938   1.418  1.7246  1.7472 -0.5936
  978SOL    HW2 3116   1.583   2.882   1.445  1.4395  1.6450  0.8284
  979SOL     OW 3117   2.882   3.396   2.307 -0.4565  1.1060  0.1581
  979SOL    HW1 3118   2.936   3.463   2.358 -1.4506  1.7146  0.4424
  979SOL    HW2 3119   2.914   3.394   2.212  2.4339 -1.1296  1.0338
  980SOL     OW 3120   1.895   0.172   2.420  0.9054  0.1146  0.1276
  980SOL    HW1 3121   1.861   0.077   2.422 -0.1735  0.4623 -0.6564
  980SOL    HW2 3122   1.908   0.204   2.514  0.3150 -0.4905  0.4296
  981SOL     OW 3123   2.476   3.373   3.785  0.1063 -0.2299 -0.4583
  981SOL    HW1 3124   2.411   3.300   3.765 -0.1932 -0.3763  0.9351
  981SOL    HW2 3125   2.567   3.333   3.798 -0.3997 -0.6717  2.2397
  982SOL     OW 3126   2.860   3.284   3.030 -0.0697  0.7958 -0.2185
  982SOL    HW1 3127   2.940   3.323   2.984 -0.4751  1.6664 -0.2045
  982SOL    HW2 3128   2.874   3.186   3.041  1.0733  0.9522 -0.0772
  983SOL     OW 3129   2.640   4.988   4.180  0.4648 -0.0808 -0.4950
  983SOL    HW1 3130   2.582   5.065   4.206 -1.2960 -0.4305 -2.9381
  983SOL    HW2 3131   2.704   5.018   4.110  1.1865 -0.3840  0.0309
  984SOL     OW 3132   2.757   3.101   2.595 -0.0589  0.2712 -0.4590
  984SOL    HW1 3133   2.779   3.010   2.628 -0.6701 -0.2028 -1.3004
  984SOL    HW2 3134   2.814   3.168   2.641  0.9744 -0.6148 -0.4144
  985SOL     OW 3135   3.560   2.377   2.417 -0.2286  0.0204  0.0150
  985SOL    HW1 3136   3.488   2.330   2.367 -0.9555 -1.6079  2.4137
  985SOL    HW2 3137   3.519   2.449   2.473  0.0747 -0.4618  0.8735
  986SOL     OW 3138   2.431   2.351   2.535  0.4080 -0.4360  0.0142
  986SOL    HW1 3139   2.361   2.415   2.503 -2.2162 -2.8933  0.4356
  986SOL    HW2 3140   2.444   2.279   2.468  1.7161 -0.6723  0.4833
  987SOL     OW 3141   2.788   4.108   2.271 -0.3856 -0.3692 -0.0956
  987SOL    HW1 3142   2.765   4.057   2.353  1.2919 -1.2397 -0.1099
  987SOL    HW2 3143   2.705   4.147   2.231 -1.2315  0.1335  2.0160
  988SOL     OW 3144   3.254   2.046   0.650 -0.1592 -0.0731  0.0147
  988SOL    HW1 3145   3.292   1.970   0.596  0.1792 -0.0837  0.2625
  988SOL    HW2 3146   3.178   2.012   0.705 -0.9699  0.0819 -0.9653
  989SOL     OW 3147   2.905   2.798   2.691 -0.4911  0.5440  0.1574
  989SOL    HW1 3148   2.831   2.824   2.754 -0.3054  0.1697  0.5357
  989SOL    HW2 3149   2.923   2.700   2.701  1.3821  0.9774  1.4920
  990SOL     OW 3150   1.709   3.017   2.046  0.4504 -0.1916  0.6694
  990SOL    HW1 3151   1.722   2.920   2.026  0.9594 -0.4361  2.0480
  990SOL    HW2 3152   1.728   3.070   1.964 -0.4181 -1.2814 -0.2808
  991SOL     OW 3153   1.442   1.645   2.977 -0.5266 -0.1181 -0.3770
  991SOL    HW1 3154   1.518   1.636   3.041 -0.6887 -1.6635 -0.3845
  991SOL    HW2 3155   1.471   1.617   2.886 -0.9453 -0.1618 -0.5001
  992SOL     OW 3156   3.381   2.825   3.554 -0.4743 -0.2243  0.0072
  992SOL    HW1 3157   3.289   2.802   3.523 -0.3954  1.1880 -1.4065
  992SOL    HW2 3158   3.428   2.741   3.582 -1.7066 -1.1421 -0.5769
  993SOL     OW 3159   3.542   2.184   3.980  0.1772  0.0085  0.7914
  993SOL    HW1 3160   3.520   2.104   4.036 -0.9610 -1.1878 -1.2152
  993SOL    HW2 3161   3.462   2.243   3.973  0.7291  0.8668  1.4997
  994SOL     OW 3162   3.460   4.778   2.131  0.3197 -0.1399 -0.3402
  994SOL    HW1 3163   3.515   4.796   2.212  0.3260  1.9460 -0.7721
  994SOL    HW2 3164   3.399   4.701   2.149 -0.3311  0.8458  1.9528
  995SOL     OW 3165   2.571   3.869   0.380  0.0560 -0.1438  0.3735
  995SOL    HW1 3166   2.651   3.863   0.320 -0.3347 -2.2775 -0.0096
  995SOL    HW2 3167   2.575   3.795   0.447 -0.5984  0.9408  1.6586
  996SOL     OW 3168   3.172   4.787   1.496  0.3427  0.3365  0.5047
  996SOL    HW1 3169   3.087   4.834   1.475 -0.3039 -1.0425 -0.0683
  996SOL    HW2 3170   3.166   4.692   1.465  1.2023 -0.4352  2.5087
  997SOL     OW 3171   3.084   0.473   2.064 -0.6055  0.2052 -0.1931
  997SOL    HW1 3172   3.025   0.393   2.050 -0.0884 -0.3016  0.4560
  997SOL    HW2 3173   3.168   0.461   2.010 -1.0706  0.9216 -1.1109
  998SOL     OW 3174   2.205   0.738   1.692  0.0749  0.2185  0.2856
  998SOL    HW1 3175   2.172   0.806   1.758 -0.5618  0.9387 -0.7480
  998SOL    HW2 3176   2.295   0.706   1.721  0.1128  1.0343  1.1332
  999SOL     OW 3177   1.695   2.681   4.431 -0.2002  0.0804 -0.1366
  999SOL    HW1 3178   1.604   2.676   4.472  0.2629 -1.7150  0.8020
  999SOL    HW2 3179   1.745   2.597   4.453  0.8481 -0.0317 -2.6339
 1000SOL     OW 3180   2.700   2.060   0.624  0.5384 -0.1879 -0.4735
 1000SOL    HW1 3181   2.607   2.095   0.606  1.0271  1.4288 -0.0474
 1000SOL    HW2 3182   2.706   2.031   0.720  0.4978 -0.2227 -0.4813
 1001SOL     OW 3183   1.708   4.796   1.949 -0.0381  0.1904  0.0746
 1001SOL    HW1 3184   1.631   4.766   2.005  0.3941 -1.0328  0.0372
 1001SOL    HW2 3185   1.782   4.729   1.956  0.0327 -0.0014 -1.9293
 1002SOL     OW 3186   3.173   1.401   0.632 -0.2301 -0.3643 -0.6181
 1002SOL    HW1 3187   3.185   1.302   0.633 -0.8041 -0.4311  0.4427
 1002SOL    HW2 3188   3.236   1.442   0.699 -0.9069 -0.1308 -0.1153
 1003SOL     OW 3189   2.775   1.045   0.864  0.2069 -0.5110 -0.2288
 1003SOL    HW1 3190   2.834   1.117   0.901 -2.1895  0.8728  1.1738
 1003SOL    HW2 3191   2.788   0.962   0.918  0.5494 -0.0797  0.3676
 1004SOL     OW 3192   2.284   1.213   3.180 -0.0014  0.2937 -0.4245
 1004SOL    HW1 3193   2.186   1.195   3.173  0.2369 -0.5843 -2.0677
 1004SOL    HW2 3194   2.306   1.239   3.274 -2.0477  2.0917 -0.3560
 1005SOL     OW 3195   3.456   3.310   1.437  0.3417 -1.1374 -0.0356
 1005SOL    HW1 3196   3.540   3.355   1.407 -1.0218  1.2367 -0.5901
 1005SOL    HW2 3197   3.395   3.379   1.478 -2.6244 -2.0742 -2.5130
 1006SOL     OW 3198   3.091   2.988   0.081  0.1103 -0.1484  0.3662
 1006SOL    HW1 3199   3.144   3.072   0.090  0.2538 -0.1271 -0.6005
 1006SOL    HW2 3200   3.151   2.909   0.097  0.0066 -0.0762  1.1328
 1007SOL     OW 3201   2.757   3.395   0.531 -0.0563  0.4898 -0.2902
 1007SOL    HW1 3202   2.740   3.479   0.583 -0.1694  0.6082 -0.5165
 1007SOL    HW2 3203   2.669   3.351   0.509  0.0175  0.1435  0.1027
 1008SOL     OW 3204   1.704   2.567   0.209 -0.3074 -0.6616 -0.0928
 1008SOL    HW1 3205   1.679   2.473   0.186 -1.2212 -0.2100 -1.0350
 1008SOL    HW2 3206   1.620   2.621   0.219  0.1113 -0.3599  2.4261
 1009SOL     OW 3207   1.645   2.797   4.758  0.4729 -0.3191 -0.9915
 1009SOL    HW1 3208   1.632   2.896   4.753 -1.7556 -0.5659 -0.8463
 1009SOL    HW2 3209   1.725   2.778   4.815 -0.1294  1.3665  0.5258
 1010SOL     OW 3210   3.028   1.243   4.949 -0.4165  0.0993 -0.0363
 1010SOL    HW1 3211   3.110   1.286   4.912  0.8091 -1.8058  0.2800
 1010SOL    HW2 3212   2.999   1.170   4.888  0.6170 -1.9514  1.7662
 1011SOL     OW 3213   2.738   3.653   0.612 -0.4625  0.4710 -0.2120
 1011SOL    HW1 3214   2.660   3.709   0.639  1.3024  1.8048  2.5097
 1011SOL    HW2 3215   2.806   3.711   0.567  1.0422  0.4914  1.9309
 1012SOL     OW 3216   2.534   4.438   2.844  0.3467  0.6029  0.2320
 1012SOL    HW1 3217   2.620   4.478   2.877 -0.0480  1.2569  0.5057
 1012SOL    HW2 3218   2.458   4.481   2.893 -0.1777  0.5677 -0.5364
 1013SOL     OW 3219   1.513   4.060   3.910 -0.0808 -0.1414  0.3165
 1013SOL    HW1 3220   1.425   4.105   3.925  1.3700  2.1730  2.9211
 1013SOL    HW2 3221   1.560   4.048   3.997  1.7082 -2.5001 -0.8398
 1014SOL     OW 3222   1.874   1.374   0.678 -0.1609  0.0163  0.1119
 1014SOL    HW1 3223   1.839   1.319   0.754 -1.6556  0.3717 -0.2930
 1014SOL    HW2 3224   1.801   1.434   0.644  0.3452 -0.4288 -1.8726
 1015SOL     OW 3225   2.168   3.046   4.306  0.1519  0.5088 -0.1894
 1015SOL    HW1 3226   2.122   3.016   4.389  0.4576  0.6896  0.0459
 1015SOL    HW2 3227   2.176   2.969   4.243  0.2626  0.2768  0.1062
 1016SOL     OW 3228   3.287   0.157   1.991 -0.0759  0.0171  0.0319
 1016SOL    HW1 3229   3.301   0.080   2.054  1.5671  0.7992  0.6781
 1016SOL    HW2 3230   3.204   0.206   2.016 -0.0857 -0.3981  0.8269
 1017SOL     OW 3231   2.890   1.176   1.281 -0.2927  0.3116 -0.4688
 1017SOL    HW1 3232   2.826   1.253   1.286  0.2118  0.6456  2.1269
 1017SOL    HW2 3233   2.980   1.210   1.256 -0.3731  0.3551 -0.7011
 1018SOL     OW 3234   2.494   2.370   2.799  0.0198  0.7196 -0.3947
 1018SOL    HW1 3235   2.484   2.348   2.702  0.5467  0.2573 -0.3480
 1018SOL    HW2 3236   2.415   2.335   2.849 -1.2519  2.6813 -0.9204
 1019SOL     OW 3237   1.190   3.858   2.740 -0.7770  0.6283  0.4837
 1019SOL    HW1 3238   1.265   3.876   2.803 -0.7133  0.0277  0.5864
 1019SOL    HW2 3239   1.226   3.851   2.647 -0.6060 -0.2889  0.6097
 1020SOL     OW 3240   2.815   0.553   2.851  0.6998 -0.4556  0.0600
 1020SOL    HW1 3241   2.763   0.543   2.766  0.3487 -0.7626  0.3062
 1020SOL    HW2 3242   2.910   0.573   2.829  0.4986  0.0324 -0.4018
 1021SOL     OW 3243   3.223   2.205   4.950  0.3476  0.3886  0.8574
 1021SOL    HW1 3244   3.248   2.120   4.997 -1.2920  0.2024  1.4663
 1021SOL    HW2 3245   3.174   2.182   4.866  0.3761  0.7402  0.7451
 1022SOL     OW 3246   2.537   4.698   1.491 -0.6880 -1.4051 -0.1907
 1022SOL    HW1 3247   2.457   4.746   1.528  1.0595 -0.2237  2.3479
 1022SOL    HW2 3248   2.579   4.755   1.420  0.3175  0.1511  1.5345
 1023SOL     OW 3249   1.448   2.572   2.635 -0.1881  0.1562 -0.2305
 1023SOL    HW1 3250   1.363   2.590   2.683 -0.2256  2.3619 -1.0388
 1023SOL    HW2 3251   1.518   2.637   2.665  0.1503  0.7670 -2.1735
 1024SOL     OW 3252   3.286   2.982   2.687  0.8862  0.1605  0.4702
 1024SOL    HW1 3253   3.277   2.953   2.782 -0.3472 -0.7399  0.1016
 1024SOL    HW2 3254   3.247   2.913   2.627  3.4657 -0.2737 -0.8703
 1025SOL     OW 3255   1.684   2.693   3.884 -0.6848  0.2290  0.3442
 1025SOL    HW1 3256   1.732   2.663   3.802  0.1488 -1.7087  1.4832
 1025SOL    HW2 3257   1.623   2.769   3.860  0.3906  0.4927 -1.8070
 1026SOL     OW 3258   2.996   3.327   3.618 -0.7486  0.0325 -0.6883
 1026SOL    HW1 3259   3.090   3.343   3.647 -0.8731 -0.6722  0.1454
 1026SOL    HW2 3260   2.934   3.378   3.677 -0.9274 -0.1295 -0.7347
 1027SOL     OW 3261   3.287   2.751   0.800  0.0803  0.1555 -0.5367
 1027SOL    HW1 3262   3.348   2.681   0.761  0.3141  0.6437 -1.0512
 1027SOL    HW2 3263   3.194   2.734   0.769 -0.1346 -0.7870  0.5074
 1028SOL     OW 3264   1.758   0.916   2.739  0.1035  0.1124 -0.0049
 1028SOL    HW1 3265   1.790   1.008   2.761  1.0157 -0.5696  1.6391
 1028SOL    HW2 3266   1.820   0.849   2.779 -1.1477 -1.2263 -0.2430
 1029SOL     OW 3267   1.930   1.628   3.888  0.6994 -0.0609  0.1831
 1029SOL    HW1 3268   1.888   1.619   3.978 -1.2772  0.3868 -0.6545
 1029SOL    HW2 3269   2.027   1.605   3.895  0.5216 -0.3427  2.3476
 1030SOL     OW 3270   2.241   3.315   4.904  0.2286 -0.6507 -0.1484
 1030SOL    HW1 3271   2.334   3.346   4.923 -0.2038  0.2000  0.6851
 1030SOL    HW2 3272   2.222   3.327   4.807  0.3358  1.0506  0.0086
 1031SOL     OW 3273   2.394   3.807   3.274  0.0957 -0.4973  0.1025
 1031SOL    HW1 3274   2.462   3.878   3.288 -0.0719 -0.5716  1.3489
 1031SOL    HW2 3275   2.359   3.777   3.362 -0.1985 -1.7739 -0.4249
 1032SOL     OW 3276   2.495   4.450   1.609 -0.2184  0.0127  0.9821
 1032SOL    HW1 3277   2.514   4.539   1.566  0.3045  0.8264  2.7892
 1032SOL    HW2 3278   2.555   4.381   1.568 -1.1447  0.2864 -0.9714
 1033SOL     OW 3279   2.583   2.906   4.245 -1.0842 -0.4230  0.6279
 1033SOL    HW1 3280   2.541   2.985   4.199 -1.1582  0.2242  1.7539
 1033SOL    HW2 3281   2.591   2.831   4.180 -2.8205 -0.1458  0.0233
 1034SOL     OW 3282   2.037   1.842   4.185  0.0421  0.6192 -0.1277
 1034SOL    HW1 3283   2.051   1.800   4.275 -0.6383  1.3714  0.3435
 1034SOL    HW2 3284   2.126   1.869   4.148  0.3151  0.4758  0.4055
 1035SOL     OW 3285   2.457   1.186   4.801  0.6026  0.2853 -0.0703
 1035SOL    HW1 3286   2.398   1.178   4.720 -0.6355 -0.0394  0.8246
 1035SOL    HW2 3287   2.405   1.233   4.873  1.0616 -0.9823  1.1127
 1036SOL     OW 3288   2.064   4.085   0.705  0.1006 -0.2044 -0.8238
 1036SOL    HW1 3289   2.066   4.129   0.795  0.7669  0.3301 -1.0827
 1036SOL    HW2 3290   2.156   4.090   0.665 -0.1967 -0.4116 -1.5429
 1037SOL     OW 3291   3.318   3.875   3.062 -0.4570  0.2817  0.0448
 1037SOL    HW1 3292   3.270   3.895   2.976  0.4568 -0.7717 -0.7378
 1037SOL    HW2 3293   3.405   3.832   3.041 -1.2038 -2.1212  1.5515
 1038SOL     OW 3294   3.454   0.799   3.410  0.0535 -1.0041  0.4593
 1038SOL    HW1 3295   3.360   0.832   3.411 -0.3157 -2.0147  0.1471
 1038SOL    HW2 3296   3.516   0.877   3.415 -0.7974 -0.3458  1.0301
 1039SOL     OW 3297   2.589   3.018   0.053 -0.4466  0.3746  0.3380
 1039SOL    HW1 3298   2.545   2.950  -0.006  0.9076 -0.8851  0.7375
 1039SOL    HW2 3299   2.677   2.983   0.083 -0.7277  1.3489  2.4355
 1040SOL     OW 3300   1.722   3.587   4.355 -0.3753 -0.7089 -0.1119
 1040SOL    HW1 3301   1.723   3.686   4.345 -0.5537 -0.6805  0.1667
 1040SOL    HW2 3302   1.742   3.563   4.450  1.2565 -0.9809 -0.4846
 1041SOL     OW 3303   3.607   4.896   3.098  0.4461  0.4730 -0.0905
 1041SOL    HW1 3304   3.681   4.892   3.165  0.9787 -0.2272 -0.7004
 1041SOL    HW2 3305   3.524   4.857   3.137  0.7242  0.1677  0.2030
 1042SOL     OW 3306   2.065   3.595   2.189  0.2625 -0.6958  0.7751
 1042SOL    HW1 3307   2.135   3.598   2.117  0.4753 -1.9934  0.9116
 1042SOL    HW2 3308   2.110   3.598   2.278  0.0035  0.8075  0.8906
 1043SOL     OW 3309   2.419   2.590   0.644  0.1608  0.0774  0.3701
 1043SOL    HW1 3310   2.321   2.610   0.650 -0.4223 -1.8859 -1.3417
 1043SOL    HW2 3311   2.467   2.638   0.717 -2.0896  0.9205  1.3888
 1044SOL     OW 3312   2.530   4.703   0.760 -0.0109  0.3380  0.1173
 1044SOL    HW1 3313   2.507   4.616   0.803  0.0565 -0.2288 -0.9521
 1044SOL    HW2 3314   2.459   4.727   0.694 -0.3637  1.4386  0.8743
 1045SOL     OW 3315   2.228   4.739   1.854  0.1815 -0.4053 -0.1540
 1045SOL    HW1 3316   2.175   4.750   1.770  1.2398 -0.4616 -0.8416
 1045SOL    HW2 3317   2.295   4.813   1.860 -1.3845  0.9530  1.8080
 1046SOL     OW 3318   2.035   4.432   4.085  0.0379  0.3047 -0.1764
 1046SOL    HW1 3319   1.940   4.419   4.059 -0.2586  0.6626  0.6774
 1046SOL    HW2 3320   2.094   4.384   4.020 -0.6631  0.9918 -1.3469
 1047SOL     OW 3321   2.661   0.663   1.564  0.2279  0.2317  0.4107
 1047SOL    HW1 3322   2.730   0.610   1.515  0.6731 -0.3900  1.6606
 1047SOL    HW2 3323   2.676   0.760   1.547  0.4619  0.0428 -0.5317
 1048SOL     OW 3324   3.160   0.573   3.601  0.2029 -0.1799 -0.9004
 1048SOL    HW1 3325   3.151   0.565   3.700  0.8759 -0.3289 -0.8494
 1048SOL    HW2 3326   3.150   0.669   3.575 -0.2510 -0.1760 -0.7213
 1049SOL     OW 3327   2.049   1.420   1.428 -0.1772  1.0207 -0.2364
 1049SOL    HW1 3328   2.044   1.328   1.468  0.1157  0.4090 -1.5605
 1049SOL    HW2 3329   2.024   1.487   1.498  0.8142  0.0381  1.1151
 1050SOL     OW 3330   2.257   2.260   3.402  0.1684  0.0421  0.1362
 1050SOL    HW1 3331   2.244   2.189   3.471 -1.5079 -0.6392 -0.8206
 1050SOL    HW2 3332   2.174   2.315   3.396  0.3163  0.1284 -1.2984
 1051SOL     OW 3333   3.074   2.179   4.734 -0.0359 -0.0560 -0.2236
 1051SOL    HW1 3334   3.022   2.265   4.726 -1.3500 -0.6969  0.9822
 1051SOL    HW2 3335   3.152   2.182   4.671 -1.2506  1.1484 -1.7539
 1052SOL     OW 3336   3.644   1.029   2.820  0.0467 -0.2081 -0.0203
 1052SOL    HW1 3337   3.588   0.947   2.831  0.7445 -0.7479 -0.3308
 1052SOL    HW2 3338   3.662   1.069   2.909 -2.4406  1.1243 -0.0317
 1053SOL     OW 3339   2.975   4.040   4.796 -0.1586 -0.0676 -0.3963
 1053SOL    HW1 3340   2.912   3.963   4.802 -0.3983  0.2276  2.0755
 1053SOL    HW2 3341   3.068   4.006   4.784 -0.2042 -0.8162  1.1200
 1054SOL     OW 3342   3.258   4.618   1.691  0.4302 -0.1299 -0.1219
 1054SOL    HW1 3343   3.231   4.687   1.624  0.0771 -0.7305 -0.6105
 1054SOL    HW2 3344   3.349   4.639   1.725  0.9497 -0.2396 -1.3810
 1055SOL     OW 3345   3.774   3.327   1.483  0.4344 -0.5917 -0.7965
 1055SOL    HW1 3346   3.798   3.231   1.499 -0.3649 -0.5513  0.8931
 1055SOL    HW2 3347   3.721   3.360   1.561 -0.6111  0.7875 -2.0473
 1056SOL     OW 3348   2.446   2.615   0.082  0.0380  0.7683 -0.0459
 1056SOL    HW1 3349   2.482   2.612  -0.011 -1.3376 -1.0540 -0.5912
 1056SOL    HW2 3350   2.473   2.532   0.131 -0.5693  0.9598  0.6356
 1057SOL     OW 3351   2.186   4.468   2.835  1.0611 -0.4181 -0.6437
 1057SOL    HW1 3352   2.178   4.462   2.736 -1.1052 -1.5579 -0.4525
 1057SOL    HW2 3353   2.190   4.375   2.873 -4.9354 -0.5137  0.6742
 1058SOL     OW 3354   1.970   2.306   0.754 -0.1840  0.0644  0.4824
 1058SOL    HW1 3355   1.885   2.338   0.796  0.1587  1.2466  0.3296
 1058SOL    HW2 3356   2.046   2.361   0.790  0.4734 -0.7793  0.3953
 1059SOL     OW 3357   2.003   1.222   3.174  0.1048 -0.0744  0.4209
 1059SOL    HW1 3358   1.942   1.249   3.249 -0.0947 -0.1064  0.2702
 1059SOL    HW2 3359   1.977   1.130   3.143  0.0040  0.0527  0.1235
 1060SOL     OW 3360   1.774   1.703   0.815  0.0384  0.0801 -0.3374
 1060SOL    HW1 3361   1.813   1.671   0.901 -0.6723  0.7027  0.2295
 1060SOL    HW2 3362   1.759   1.802   0.820  0.5993  0.2414 -1.4257
 1061SOL     OW 3363   3.376   0.591   2.488 -0.2326 -0.4773 -0.1194
 1061SOL    HW1 3364   3.326   0.539   2.557  1.2592 -0.1471  1.2589
 1061SOL    HW2 3365   3.423   0.527   2.427  0.0529 -0.7498  0.3898
 1062SOL     OW 3366   2.611   0.946   0.313 -0.2923  0.0790 -0.2032
 1062SOL    HW1 3367   2.662   0.954   0.398 -2.6757  1.0073  1.2431
 1062SOL    HW2 3368   2.660   0.885   0.251  1.2480 -1.1105  2.0457
 1063SOL     OW 3369   3.288   4.991   1.757 -0.2706 -0.1677  0.4985
 1063SOL    HW1 3370   3.294   5.067   1.822  2.3860  0.7709 -0.6834
 1063SOL    HW2 3371   3.296   5.026   1.664  0.1183 -1.8138 -0.1293
 1064SOL     OW 3372   3.686   1.591   4.044  0.5215  0.1662  0.1674
 1064SOL    HW1 3373   3.663   1.521   3.977  0.8050 -0.5863  0.8336
 1064SOL    HW2 3374   3.682   1.551   4.136 -3.1078  1.9297  0.9497
 1065SOL     OW 3375   3.226   1.376   4.846 -0.2387  0.2462 -0.4113
 1065SOL    HW1 3376   3.213   1.472   4.820  0.3462  0.0203 -1.6441
 1065SOL    HW2 3377   3.252   1.324   4.764 -0.1558 -0.8906  0.3213
 1066SOL     OW 3378   1.681   0.297   2.042  0.3599 -0.2595  0.0326
 1066SOL    HW1 3379   1.666   0.333   1.950 -1.0264 -2.3326 -0.6413
 1066SOL    HW2 3380   1.714   0.202   2.035  2.0709  0.1419  1.6982
 1067SOL     OW 3381   3.121   2.108   0.417  0.2728 -0.3446 -0.0645
 1067SOL    HW1 3382   3.186   2.085   0.489 -0.9127 -2.9654  0.2574
 1067SOL    HW2 3383   3.039   2.053   0.427 -0.6933  0.5299 -2.3840
 1068SOL     OW 3384   2.931   4.185   0.522 -0.0911  0.0761  0.5042
 1068SOL    HW1 3385   3.010   4.141   0.480  0.7679  1.6286  0.4488
 1068SOL    HW2 3386   2.863   4.204   0.451 -0.2935 -0.7446  0.4636
 1069SOL     OW 3387   1.843   2.905   4.967  0.0222 -0.1630 -0.3849
 1069SOL    HW1 3388   1.841   2.991   4.916 -0.8691 -0.0899 -0.2435
 1069SOL    HW2 3389   1.912   2.844   4.927  1.4811  1.0287  0.2146
 1070SOL     OW 3390   1.693   0.913   2.448 -0.1123  0.4188 -0.3399
 1070SOL    HW1 3391   1.685   0.911   2.547  0.6694  1.1386 -0.2507
 1070SOL    HW2 3392   1.657   0.827   2.410 -1.0589  0.4280  0.5004
 1071SOL     OW 3393   1.978   3.226   3.593 -0.0375  0.2626 -0.3366
 1071SOL    HW1 3394   1.944   3.233   3.687  1.2110  0.6243  0.1001
 1071SOL    HW2 3395   2.078   3.228   3.593 -0.0000 -0.4108 -1.6252
 1072SOL     OW 3396   2.348   1.339   1.656  0.6048 -0.5903  0.0270
 1072SOL    HW1 3397   2.435   1.317   1.612  0.9217  0.5600  0.0405
 1072SOL    HW2 3398   2.312   1.424   1.617 -0.1729 -0.6976  0.4927
 1073SOL     OW 3399   1.005   2.466   2.482 -0.3095 -0.1134 -0.4466
 1073SOL    HW1 3400   1.078   2.398   2.493  0.0703  0.2613 -0.6244
 1073SOL    HW2 3401   0.921   2.431   2.523  0.0687 -0.3894  0.1065
 1074SOL     OW 3402   1.878   2.637   1.603  0.1176 -1.1059 -0.4319
 1074SOL    HW1 3403   1.861   2.657   1.507  2.5853  0.1938 -0.6767
 1074SOL    HW2 3404   1.791   2.630   1.651 -1.1748  2.2711 -1.9953
 1075SOL     OW 3405   2.873   1.593   1.068  0.0889  0.0730  0.3611
 1075SOL    HW1 3406   2.826   1.680   1.082 -1.9523 -0.2679 -3.0928
 1075SOL    HW2 3407   2.912   1.592   0.976  2.4748 -1.7183  1.2918
 1076SOL     OW 3408   3.296   3.305   3.391  0.4595  1.3660  0.1045
 1076SOL    HW1 3409   3.218   3.251   3.360  1.0493 -0.3372  1.4064
 1076SOL    HW2 3410   3.289   3.398   3.355 -2.7157  1.5983  1.0873
 1077SOL     OW 3411   1.656   0.997   2.992  0.9595  0.7800 -0.0925
 1077SOL    HW1 3412   1.646   0.902   3.019 -2.0148  0.3335 -2.2348
 1077SOL    HW2 3413   1.642   1.005   2.893 -1.3078  3.6269  0.3054
 1078SOL     OW 3414   2.733   1.792   4.787 -0.3298 -0.0921 -0.0295
 1078SOL    HW1 3415   2.743   1.722   4.717 -1.3375  0.4756 -0.7735
 1078SOL    HW2 3416   2.663   1.858   4.758 -0.2298  0.5780  1.1701
 1079SOL     OW 3417   1.650   4.318   1.155  0.5624 -0.3420 -0.1356
 1079SOL    HW1 3418   1.557   4.353   1.161  0.4519 -0.7311  0.4368
 1079SOL    HW2 3419   1.702   4.347   1.235  0.6141 -1.0457  0.0980
 1080SOL     OW 3420   2.240   3.488   3.101  0.2132  0.7020 -0.2159
 1080SOL    HW1 3421   2.228   3.391   3.082  0.6748 -0.1581  3.2897
 1080SOL    HW2 3422   2.150   3.532   3.104 -0.2197 -0.2097  0.7367
 1081SOL     OW 3423   2.525   2.719   0.869 -0.2516 -0.4096  0.2069
 1081SOL    HW1 3424   2.494   2.797   0.923 -1.3630 -1.1648  0.6903
 1081SOL    HW2 3425   2.625   2.723   0.859 -0.4397  2.4582 -1.9331
 1082SOL     OW 3426   1.663   2.291   2.362  0.2009  0.1670 -0.0416
 1082SOL    HW1 3427   1.600   2.284   2.284 -0.3185 -0.9665  0.4494
 1082SOL    HW2 3428   1.673   2.387   2.388  0.2868  0.5501 -1.4157
 1083SOL     OW 3429   2.667   3.340   1.970  0.1957 -0.1047 -0.0267
 1083SOL    HW1 3430   2.626   3.347   1.880  0.1913 -0.7468 -0.0840
 1083SOL    HW2 3431   2.668   3.244   1.998  0.6889  0.0238  0.4229
 1084SOL     OW 3432   1.342   1.300   1.053 -0.4700  0.3715 -0.5281
 1084SOL    HW1 3433   1.415   1.280   1.118 -0.4823  0.7997 -0.3793
 1084SOL    HW2 3434   1.363   1.257   0.965 -0.6307 -0.5162 -0.1405
 1085SOL     OW 3435   3.712   2.795   2.423  0.3592 -0.1850 -0.1433
 1085SOL    HW1 3436   3.629   2.803   2.369 -0.5070  0.5297  1.2440
 1085SOL    HW2 3437   3.726   2.699   2.448  0.3038 -0.3920 -0.8868
 1086SOL     OW 3438   2.031   4.496   1.097 -0.3830  0.2355 -0.0842
 1086SOL    HW1 3439   2.117   4.524   1.057 -0.6245  1.2580  0.0967
 1086SOL    HW2 3440   1.961   4.489   1.025 -0.6487  1.4108  0.0453
 1087SOL     OW 3441   3.207   0.226   3.360  0.0710  0.1927  0.1565
 1087SOL    HW1 3442   3.149   0.250   3.438  0.3875  0.6177  0.2648
 1087SOL    HW2 3443   3.303   0.235   3.386  0.2070 -1.0744  0.1539
 1088SOL     OW 3444   2.125   2.376   4.759 -0.0766  0.8637  0.2240
 1088SOL    HW1 3445   2.065   2.296   4.757  1.9888 -0.7640 -1.2072
 1088SOL    HW2 3446   2.170   2.382   4.848 -0.1039  0.2914  0.2787
 1089SOL     OW 3447   2.302   4.759   1.210  0.5715 -0.1203  0.1616
 1089SOL    HW1 3448   2.250   4.733   1.128 -1.4419  2.5971  0.4269
 1089SOL    HW2 3449   2.270   4.705   1.287  0.8401 -1.0788 -0.3780
 1090SOL     OW 3450   2.281   1.903   4.543  0.3926  0.2436 -0.4031
 1090SOL    HW1 3451   2.243   1.833   4.484  1.3028 -0.2938 -0.3822
 1090SOL    HW2 3452   2.330   1.970   4.488  1.4290 -0.3769 -0.2787
 1091SOL     OW 3453   2.820   0.478   1.455  0.0414 -0.2196  0.1228
 1091SOL    HW1 3454   2.865   0.410   1.397 -2.4766 -1.5121 -0.4564
 1091SOL    HW2 3455   2.888   0.519   1.517  1.9304 -2.0969 -0.5973
 1092SOL     OW 3456   2.717   1.424   4.154  0.0149 -0.1781  0.6204
 1092SOL    HW1 3457   2.706   1.331   4.191 -0.6099  1.1119  4.0075
 1092SOL    HW2 3458   2.799   1.465   4.191 -0.0990  0.9188 -0.2809
 1093SOL     OW 3459   2.881   0.290   1.803  0.0951  0.2844 -0.3709
 1093SOL    HW1 3460   2.817   0.366   1.817 -0.4538 -0.0509 -0.9799
 1093SOL    HW2 3461   2.974   0.326   1.800  0.0827  0.6272  1.8623
 1094SOL     OW 3462   3.840   2.095   3.335 -0.1705  0.1426  0.1346
 1094SOL    HW1 3463   3.855   2.005   3.377  0.0799  1.1574  2.3724
 1094SOL    HW2 3464   3.787   2.152   3.398 -0.2596  1.6064 -1.2048
 1095SOL     OW 3465   1.649   3.338   4.663  0.1373 -0.5134  0.1951
 1095SOL    HW1 3466   1.551   3.358   4.665  0.3154  0.3328  0.8897
 1095SOL    HW2 3467   1.699   3.421   4.638  0.8012 -0.3872  1.8286
 1096SOL     OW 3468   3.603   2.717   2.687  0.0582  0.0757  0.4656
 1096SOL    HW1 3469   3.687   2.667   2.666 -0.5529 -1.4069  1.4102
 1096SOL    HW2 3470   3.529   2.682   2.630  0.1282  1.6617 -0.6671
 1097SOL     OW 3471   1.884   2.778   0.222 -0.4306 -0.1766  0.4127
 1097SOL    HW1 3472   1.870   2.824   0.134  0.3309  0.1126  0.4295
 1097SOL    HW2 3473   1.825   2.698   0.227  0.3050 -0.8489 -0.8562
 1098SOL     OW 3474   1.556   3.240   1.255 -0.0400  0.0686 -0.7611
 1098SOL    HW1 3475   1.604   3.327   1.264 -0.0281  0.2472 -2.2602
 1098SOL    HW2 3476   1.557   3.212   1.159  0.9210 -2.1544 -0.1568
 1099SOL     OW 3477   2.908   2.436   2.277 -0.3849  0.1115 -0.3991
 1099SOL    HW1 3478   2.985   2.437   2.341 -1.6205 -0.3814  1.1494
 1099SOL    HW2 3479   2.823   2.453   2.328 -1.4498 -0.6978 -1.8615
 1100SOL     OW 3480   3.477   3.231   1.852  0.0719 -0.3166  0.3262
 1100SOL    HW1 3481   3.413   3.305   1.874  2.0459  2.0036 -1.1472
 1100SOL    HW2 3482   3.440   3.176   1.777 -0.6862  0.2450  0.2753
 1101SOL     OW 3483   1.509   3.442   1.881  0.4514 -0.0103  0.0148
 1101SOL    HW1 3484   1.474   3.461   1.973  0.2448 -0.4075  0.0158
 1101SOL    HW2 3485   1.556   3.524   1.847  0.0519  0.3212  0.2529
 1102SOL     OW 3486   2.383   1.048   1.718 -0.7788 -0.1286  0.0989
 1102SOL    HW1 3487   2.330   1.005   1.645  0.5190 -0.7521 -0.5218
 1102SOL    HW2 3488   2.385   1.147   1.703  0.3519 -0.3313 -1.3784
 1103SOL     OW 3489   2.903   0.720   4.273  0.0407  0.2783  0.7384
 1103SOL    HW1 3490   2.807   0.748   4.264  0.0996  0.7582  1.4761
 1103SOL    HW2 3491   2.962   0.799   4.251  0.3941 -0.7547 -2.6714
 1104SOL     OW 3492   3.104   1.904   3.549 -0.1809  0.2803  0.8508
 1104SOL    HW1 3493   3.158   1.978   3.589  0.9280 -0.9853  1.7865
 1104SOL    HW2 3494   3.094   1.920   3.451 -0.7544  2.1264  1.1783
 1105SOL     OW 3495   1.353   2.841   1.064  0.1189  0.4073 -0.4796
 1105SOL    HW1 3496   1.358   2.863   0.967  1.0142 -1.0843 -0.8106
 1105SOL    HW2 3497   1.439   2.867   1.108  0.1310  0.1051 -0.3181
 1106SOL     OW 3498   1.572   3.004   2.436 -0.5758  0.1541 -0.4957
 1106SOL    HW1 3499   1.476   2.981   2.421 -1.2466  1.1935  1.7659
 1106SOL    HW2 3500   1.579   3.101   2.460  0.7474 -0.3481  1.4175
 1107SOL     OW 3501   2.120   4.766   3.163  0.1948 -0.3606  0.1700
 1107SOL    HW1 3502   2.171   4.807   3.238 -3.2679  1.0688  1.9443
 1107SOL    HW2 3503   2.115   4.831   3.087 -1.2465  0.6257  1.0844
 1108SOL     OW 3504   3.091   1.070   3.470  0.1696  0.4182  0.0907
 1108SOL    HW1 3505   3.176   1.077   3.418  0.4018 -1.2401  0.1927
 1108SOL    HW2 3506   3.019   1.120   3.421  1.0413  1.3621 -0.2888
 1109SOL     OW 3507   1.799   3.962   0.108  0.3913 -0.3186  0.5270
 1109SOL    HW1 3508   1.875   3.965   0.042  0.1624  0.2217  0.2779
 1109SOL    HW2 3509   1.769   4.056   0.127  0.1467 -0.4986  1.0492
 1110SOL     OW 3510   2.385   4.162   0.152  0.8801  0.2064  0.1078
 1110SOL    HW1 3511   2.467   4.119   0.112  1.2789  0.6833  0.3949
 1110SOL    HW2 3512   2.353   4.105   0.228  0.9568  0.0249  0.0071
 1111SOL     OW 3513   1.356   2.047   2.382  0.2732  0.3200 -0.1922
 1111SOL    HW1 3514   1.371   1.956   2.344  1.8512 -0.3273  1.8004
 1111SOL    HW2 3515   1.435   2.074   2.437 -0.7858  2.2788  0.4937
 1112SOL     OW 3516   2.789   0.547   1.111  0.6053 -0.3384 -0.5467
 1112SOL    HW1 3517   2.759   0.512   1.023  1.7996  0.7174 -1.4134
 1112SOL    HW2 3518   2.866   0.491   1.144  0.4631 -0.4459 -0.3935
 1113SOL     OW 3519   2.183   1.967   4.980  0.0169  1.0188  0.0525
 1113SOL    HW1 3520   2.164   2.021   4.898  0.3131  0.6440 -0.2609
 1113SOL    HW2 3521   2.096   1.950   5.028 -0.4240 -0.2558 -1.1114
 1114SOL     OW 3522   2.711   4.742   4.223 -0.2186 -0.7230 -0.4011
 1114SOL    HW1 3523   2.673   4.834   4.213  1.2174 -0.0159  0.3539
 1114SOL    HW2 3524   2.636   4.676   4.222 -1.3810  0.5266  0.0523
 1115SOL     OW 3525   3.437   2.262   4.318 -0.0704 -0.4342  0.2398
 1115SOL    HW1 3526   3.509   2.292   4.255 -0.2325 -0.1338  0.1973
 1115SOL    HW2 3527   3.412   2.339   4.378  2.0654 -1.4067  2.6042
 1116SOL     OW 3528   3.171   1.477   0.142 -0.5791  0.3911  0.5288
 1116SOL    HW1 3529   3.213   1.438   0.060  0.2282  0.8749  0.7050
 1116SOL    HW2 3530   3.095   1.418   0.171 -1.6559  0.8481 -1.2537
 1117SOL     OW 3531   2.102   1.306   2.561 -0.3704  0.5890 -0.2367
 1117SOL    HW1 3532   2.152   1.321   2.647  0.1503  0.8754 -0.5778
 1117SOL    HW2 3533   2.157   1.249   2.501 -1.6128 -1.3531  0.3807
 1118SOL     OW 3534   3.238   0.770   0.589  0.8647  0.1970  0.2020
 1118SOL    HW1 3535   3.215   0.827   0.510  0.4219 -0.5596 -0.2313
 1118SOL    HW2 3536   3.161   0.708   0.608  1.2421 -0.0980  0.8026
 1119SOL     OW 3537   2.607   1.294   1.587 -0.3391  0.0015 -0.6639
 1119SOL    HW1 3538   2.701   1.324   1.602 -0.0530 -0.8095 -0.7597
 1119SOL    HW2 3539   2.604   1.232   1.508 -0.6476 -1.3522  0.3637
 1120SOL     OW 3540   2.627   1.389   4.786  0.0066  0.1798 -0.1665
 1120SOL    HW1 3541   2.592   1.461   4.846 -0.0180  1.3403 -1.5423
 1120SOL    HW2 3542   2.576   1.304   4.803 -0.7704  0.7873  0.6207
 1121SOL     OW 3543   3.477   3.580   1.775  0.4044 -0.1364 -0.1642
 1121SOL    HW1 3544   3.465   3.600   1.872 -0.7800 -0.9687 -0.1181
 1121SOL    HW2 3545   3.562   3.529   1.763  0.8884  0.5279  0.3394
 1122SOL     OW 3546   1.756   1.753   2.664 -0.3151  0.2794  0.2482
 1122SOL    HW1 3547   1.746   1.847   2.698 -1.6099 -0.1945  1.2774
 1122SOL    HW2 3548   1.851   1.738   2.638  0.1315  1.5679  1.0281
 1123SOL     OW 3549   1.157   2.530   2.252 -0.8151  0.6967 -0.1792
 1123SOL    HW1 3550   1.099   2.491   2.324 -2.0716  1.4101 -0.7584
 1123SOL    HW2 3551   1.112   2.612   2.216  1.3806  2.2741  0.5005
 1124SOL     OW 3552   1.976   2.570   1.862  0.3320  0.6925  0.0447
 1124SOL    HW1 3553   2.056   2.616   1.902  2.4651 -2.2278 -0.5430
 1124SOL    HW2 3554   1.958   2.611   1.772  1.1446  1.4418  0.1981
 1125SOL     OW 3555   3.283   3.628   2.463  0.1661 -0.1054  0.0389
 1125SOL    HW1 3556   3.291   3.632   2.562  0.4065 -2.3863  0.1670
 1125SOL    HW2 3557   3.294   3.533   2.433 -0.2070  0.4876 -2.1497
 1126SOL     OW 3558   1.850   2.196   2.212  0.1248 -0.2835  0.5661
 1126SOL    HW1 3559   1.834   2.262   2.138 -1.0102  0.0177  1.0589
 1126SOL    HW2 3560   1.778   2.206   2.280  1.9798  0.5288  2.5167
 1127SOL     OW 3561   2.981   0.371   0.870 -0.1720  0.1966  0.2417
 1127SOL    HW1 3562   3.052   0.318   0.823 -0.6091 -0.7050  0.5833
 1127SOL    HW2 3563   2.894   0.322   0.864 -0.3211  0.2671  1.6362
 1128SOL     OW 3564   3.138   1.915   1.881  0.0248 -0.5879 -0.0967
 1128SOL    HW1 3565   3.043   1.885   1.883  0.2964 -1.4625  0.4608
 1128SOL    HW2 3566   3.181   1.885   1.796 -0.1705 -0.2798 -0.3038
 1129SOL     OW 3567   2.120   0.374   3.238 -0.4301  0.5870 -0.3985
 1129SOL    HW1 3568   2.170   0.432   3.302 -1.2097  1.6459 -0.7123
 1129SOL    HW2 3569   2.097   0.287   3.283  2.2807 -0.2657 -0.4842
 1130SOL     OW 3570   3.315   3.281   4.630 -0.4589 -0.3893 -0.0962
 1130SOL    HW1 3571   3.296   3.355   4.565  1.4870 -0.7258 -1.1065
 1130SOL    HW2 3572   3.349   3.320   4.715 -0.8210 -0.0612 -0.0978
 1131SOL     OW 3573   3.392   0.141   3.118 -0.4461  0.4071 -0.5378
 1131SOL    HW1 3574   3.474   0.085   3.100 -0.5662  0.5710 -1.6709
 1131SOL    HW2 3575   3.335   0.094   3.186  0.9516  0.6710  0.8680
 1132SOL     OW 3576   1.394   2.702   2.956  0.5125 -0.1106  0.0744
 1132SOL    HW1 3577   1.426   2.748   2.873  1.9672 -0.5866  0.3512
 1132SOL    HW2 3578   1.404   2.764   3.033 -2.9898  1.2053 -0.3516
 1133SOL     OW 3579   3.486   2.908   1.298 -0.2614  0.0799 -0.5354
 1133SOL    HW1 3580   3.555   2.897   1.369 -1.0792  1.0418  0.4373
 1133SOL    HW2 3581   3.430   2.825   1.294 -0.1703 -0.0071 -0.0867
 1134SOL     OW 3582   2.342   2.753   2.037  0.5408 -0.7551  0.0690
 1134SOL    HW1 3583   2.436   2.775   2.011 -0.6352  2.9987 -1.6369
 1134SOL    HW2 3584   2.310   2.820   2.105 -1.1779 -1.4532  0.0014
 1135SOL     OW 3585   3.407   1.947   1.418 -0.3036 -0.1150  0.9656
 1135SOL    HW1 3586   3.478   1.994   1.364 -2.1041  2.1134  0.3689
 1135SOL    HW2 3587   3.371   1.870   1.366 -0.9485  1.0829 -0.4273
 1136SOL     OW 3588   2.915   1.064   4.093 -0.2526 -0.2876  0.2892
 1136SOL    HW1 3589   2.900   1.125   4.171  0.4714 -0.8194  0.8576
 1136SOL    HW2 3590   2.911   1.118   4.008 -3.0175  0.0000  0.4954
 1137SOL     OW 3591   1.982   2.393   2.445 -0.5320 -0.3523  0.5492
 1137SOL    HW1 3592   1.892   2.432   2.466 -0.9151  0.0330 -1.6106
 1137SOL    HW2 3593   1.983   2.296   2.473 -1.6613 -0.3952  0.4984
 1138SOL     OW 3594   1.842   3.466   0.625  0.4104 -0.4692 -0.1787
 1138SOL    HW1 3595   1.838   3.388   0.563 -0.7217 -1.1509  0.7095
 1138SOL    HW2 3596   1.933   3.506   0.622  0.0344  0.3746 -3.2946
 1139SOL     OW 3597   2.660   3.783   2.926 -0.1125  0.1191  0.1679
 1139SOL    HW1 3598   2.570   3.767   2.965 -1.4339  1.0702 -2.2844
 1139SOL    HW2 3599   2.694   3.872   2.957 -2.2572  2.0391 -2.4972
 1140SOL     OW 3600   2.290   1.372   4.603 -0.2176  0.0079 -0.1473
 1140SOL    HW1 3601   2.277   1.428   4.685  1.6801  0.3393 -0.0143
 1140SOL    HW2 3602   2.316   1.431   4.526  1.6000 -0.6064 -0.0584
 1141SOL     OW 3603   2.886   4.072   0.052 -0.4679 -0.9868 -0.6435
 1141SOL    HW1 3604   2.965   4.013   0.071  0.9138  0.5586 -1.2808
 1141SOL    HW2 3605   2.892   4.104  -0.042 -1.7344 -0.6297 -0.6099
 1142SOL     OW 3606   3.026   3.804   3.096  0.4196  0.5103  0.3863
 1142SOL    HW1 3607   2.991   3.720   3.136  0.4570 -0.8554 -2.2428
 1142SOL    HW2 3608   3.124   3.812   3.117  0.3980 -0.0565  0.7103
 1143SOL     OW 3609   2.201   3.232   2.221  0.6883 -0.5060  0.7826
 1143SOL    HW1 3610   2.276   3.249   2.157 -1.2990  1.4136 -1.2076
 1143SOL    HW2 3611   2.188   3.133   2.231  0.6119 -0.9292 -2.4759
 1144SOL     OW 3612   3.099   4.577   1.303 -0.3582  0.1239  0.3051
 1144SOL    HW1 3613   3.103   4.517   1.223  0.3057  0.5678 -0.0041
 1144SOL    HW2 3614   3.004   4.588   1.331 -0.7219  0.8501 -1.1110
 1145SOL     OW 3615   3.173   2.364   3.661 -0.1064  0.1700 -0.2698
 1145SOL    HW1 3616   3.185   2.268   3.688  0.9635 -0.2163 -1.9461
 1145SOL    HW2 3617   3.202   2.423   3.736  0.8354 -0.8308  0.1832
 1146SOL     OW 3618   2.102   3.663   2.851  0.0520  0.5926 -0.0337
 1146SOL    HW1 3619   2.199   3.676   2.835  0.8403 -0.5302  3.0464
 1146SOL    HW2 3620   2.068   3.589   2.793  1.6205 -0.5440  0.4387
 1147SOL     OW 3621   2.638   4.257   1.485 -0.1508  0.2336 -0.0624
 1147SOL    HW1 3622   2.590   4.197   1.421 -0.1541  1.3861 -1.1717
 1147SOL    HW2 3623   2.680   4.332   1.435  0.1227  0.9953  1.2625
 1148SOL     OW 3624   2.861   1.154   2.277  0.2025  0.5031  0.5400
 1148SOL    HW1 3625   2.959   1.171   2.288  0.2536  0.0617  0.7989
 1148SOL    HW2 3626   2.843   1.056   2.289 -0.0149  0.2645 -1.4387
 1149SOL     OW 3627   2.472   2.152   2.368  0.0517 -0.3277  0.1105
 1149SOL    HW1 3628   2.419   2.125   2.287 -1.0123 -0.7762  0.9313
 1149SOL    HW2 3629   2.566   2.122   2.356 -0.3430 -1.4184 -0.4781
 1150SOL     OW 3630   2.858   3.322   1.642  0.4403  0.5696 -0.0815
 1150SOL    HW1 3631   2.901   3.409   1.618  2.9924 -0.5334  0.2538
 1150SOL    HW2 3632   2.926   3.260   1.680 -1.9748 -0.3757  3.1793
 1151SOL     OW 3633   1.917   3.101   3.337 -0.6544  0.1037 -0.2330
 1151SOL    HW1 3634   1.856   3.025   3.361  2.5724 -2.6158  0.0620
 1151SOL    HW2 3635   1.950   3.145   3.421  0.0893 -0.4074 -0.2543
 1152SOL     OW 3636   1.810   4.105   0.499  0.7703  0.3029 -0.2798
 1152SOL    HW1 3637   1.893   4.052   0.514  1.0495  1.1871  1.6310
 1152SOL    HW2 3638   1.830   4.180   0.436  0.4628 -1.5539 -2.6960
 1153SOL     OW 3639   3.369   3.918   2.448 -0.0051  0.1690 -0.0044
 1153SOL    HW1 3640   3.381   3.902   2.546  0.8291  1.7470  0.1855
 1153SOL    HW2 3641   3.354   3.830   2.402  0.9468 -0.7425  1.3457
 1154SOL     OW 3642   2.943   1.813   4.247 -0.5550  0.6518  0.0689
 1154SOL    HW1 3643   2.918   1.893   4.192  1.1157 -1.0241 -3.4496
 1154SOL    HW2 3644   3.042   1.813   4.261 -0.2732 -1.5095 -1.4128
 1155SOL     OW 3645   2.054   1.879   3.354  0.0301  0.5445 -0.3291
 1155SOL    HW1 3646   2.022   1.941   3.282  2.1202  0.5167 -1.3585
 1155SOL    HW2 3647   2.049   1.925   3.442 -1.4072  1.0266 -0.6357
 1156SOL     OW 3648   2.954   0.570   2.256  0.0892 -0.2968 -0.4370
 1156SOL    HW1 3649   2.901   0.628   2.195  0.4363  0.0318 -0.4352
 1156SOL    HW2 3650   3.028   0.527   2.204 -1.2645 -2.2211 -0.8471
 1157SOL     OW 3651   1.784   2.911   0.435 -0.5959  0.1603 -0.0031
 1157SOL    HW1 3652   1.826   2.902   0.345 -0.7028  0.2566 -0.0628
 1157SOL    HW2 3653   1.747   2.823   0.464 -0.4366  0.0966  0.0084
 1158SOL     OW 3654   3.447   2.221   2.844 -0.2505 -0.9596  0.1997
 1158SOL    HW1 3655   3.451   2.312   2.802 -0.0123 -0.4347  1.3128
 1158SOL    HW2 3656   3.479   2.153   2.778 -2.1877 -0.4961 -1.2871
 1159SOL     OW 3657   2.713   2.908   2.832  0.7528 -0.7374 -0.5283
 1159SOL    HW1 3658   2.651   2.954   2.768 -0.6429 -0.5700  0.8745
 1159SOL    HW2 3659   2.659   2.848   2.892  2.2294 -2.3168 -0.6849
 1160SOL     OW 3660   2.926   3.272   2.702  0.7051  0.1992  0.1084
 1160SOL    HW1 3661   2.956   3.266   2.797 -0.6033 -2.2461  0.4470
 1160SOL    HW2 3662   2.947   3.363   2.667  2.1912  0.8210  2.3810
 1161SOL     OW 3663   2.397   2.185   4.812  0.4544 -0.1912  0.2341
 1161SOL    HW1 3664   2.468   2.147   4.752  0.7306 -1.6893  1.4270
 1161SOL    HW2 3665   2.309   2.142   4.789  0.3476  0.0741  0.1520
 1162SOL     OW 3666   2.000   2.709   2.313  0.6794  0.2651 -0.2803
 1162SOL    HW1 3667   2.032   2.617   2.291  0.8926  0.3724 -0.4232
 1162SOL    HW2 3668   1.972   2.712   2.409 -1.4584 -0.5469 -0.8253
 1163SOL     OW 3669   3.279   1.806   1.627  0.2137  0.0553  0.0319
 1163SOL    HW1 3670   3.203   1.779   1.569  1.0503 -0.4321 -0.8743
 1163SOL    HW2 3671   3.342   1.863   1.574  1.3114 -0.9150  0.2539
 1164SOL     OW 3672   1.974   1.198   1.578  0.2422  0.2911  0.1808
 1164SOL    HW1 3673   1.933   1.153   1.657 -0.5376  0.2943 -0.2118
 1164SOL    HW2 3674   1.978   1.134   1.501  0.3167  0.5026  0.0037
 1165SOL     OW 3675   2.684   2.525   0.329  0.0474  0.2992 -0.5867
 1165SOL    HW1 3676   2.677   2.497   0.425 -0.6043  1.5178 -0.2582
 1165SOL    HW2 3677   2.637   2.458   0.271 -1.3531  0.6070  0.1539
 1166SOL     OW 3678   2.269   3.668   1.706 -0.1424  0.3704 -0.5072
 1166SOL    HW1 3679   2.236   3.623   1.789  0.1276 -1.9852 -1.5826
 1166SOL    HW2 3680   2.333   3.740   1.730 -0.0136 -0.3128  1.3164
 1167SOL     OW 3681   3.420   3.342   2.430  0.7003  0.5691  0.1108
 1167SOL    HW1 3682   3.431   3.243   2.421 -1.4120  0.3584 -1.0122
 1167SOL    HW2 3683   3.505   3.388   2.404  1.2233 -0.9123 -0.9193
 1168SOL     OW 3684   1.785   2.427   4.506  0.5154 -0.1800  0.2283
 1168SOL    HW1 3685   1.791   2.343   4.560 -0.4112  0.8178  2.0310
 1168SOL    HW2 3686   1.742   2.408   4.418  1.8237 -1.8362 -0.0902
 1169SOL     OW 3687   1.960   4.235   1.850  0.2386 -0.2362 -0.6147
 1169SOL    HW1 3688   2.045   4.220   1.799  0.6802  0.2892 -0.0447
 1169SOL    HW2 3689   1.938   4.152   1.902  0.2300 -0.4821 -1.0042
 1170SOL     OW 3690   2.358   2.391   0.434 -0.1501  0.4968  0.0133
 1170SOL    HW1 3691   2.271   2.431   0.405 -0.1367  0.2773 -0.3340
 1170SOL    HW2 3692   2.382   2.427   0.524 -1.3108 -0.5103  0.7690
 1171SOL     OW 3693   2.949   2.520   2.795 -0.2166 -0.2481  0.8129
 1171SOL    HW1 3694   2.937   2.525   2.894  0.2177  0.3835  0.8330
 1171SOL    HW2 3695   2.873   2.468   2.756 -0.4112 -0.4639  1.4717
 1172SOL     OW 3696   2.987   3.036   1.005 -1.0762 -0.6337 -0.7910
 1172SOL    HW1 3697   2.951   3.076   1.090  0.6066 -1.2363  0.2612
 1172SOL    HW2 3698   3.086   3.033   1.010 -1.0311 -3.7479 -1.3139
 1173SOL     OW 3699   1.402   2.568   1.012 -0.0245  0.0275  0.2460
 1173SOL    HW1 3700   1.386   2.661   1.046 -1.5726 -0.3103  0.5077
 1173SOL    HW2 3701   1.457   2.517   1.079 -0.5827  0.2513  0.8812
 1174SOL     OW 3702   3.347   0.941   1.116 -0.0759 -0.0777 -0.3574
 1174SOL    HW1 3703   3.286   0.866   1.142  0.3027 -0.1552  0.3186
 1174SOL    HW2 3704   3.441   0.917   1.137  0.1501  0.2247 -0.9837
 1175SOL     OW 3705   1.959   0.586   0.884 -0.1140  0.2852 -0.1045
 1175SOL    HW1 3706   1.910   0.518   0.938 -0.2274 -0.0041 -0.5669
 1175SOL    HW2 3707   1.999   0.542   0.803 -2.1655  1.1450 -1.6857
 1176SOL     OW 3708   1.807   0.361   1.795 -0.0647 -0.0016 -0.5119
 1176SOL    HW1 3709   1.769   0.452   1.778  1.5518  0.8297  0.0926
 1176SOL    HW2 3710   1.815   0.312   1.708 -1.2233  0.3006 -0.8063
 1177SOL     OW 3711   2.897   4.576   3.770  0.0969  0.2200  0.3610
 1177SOL    HW1 3712   2.909   4.654   3.831  0.0287 -0.2309  0.9592
 1177SOL    HW2 3713   2.974   4.513   3.782 -1.6193 -1.6450  2.6508
 1178SOL     OW 3714   2.390   0.166   3.065  0.0154  0.0156 -0.4303
 1178SOL    HW1 3715   2.341   0.253   3.059  1.3253  0.9441  1.3000
 1178SOL    HW2 3716   2.470   0.169   3.006 -0.0162 -0.0723 -0.4777
 1179SOL     OW 3717   2.023   1.704   2.567 -0.0556  0.4341 -0.3148
 1179SOL    HW1 3718   2.107   1.695   2.620  0.5787 -1.4046 -1.5164
 1179SOL    HW2 3719   2.042   1.754   2.483  0.2882 -1.3300 -1.3467
 1180SOL     OW 3720   1.744   2.740   1.999  0.3567 -0.2503  0.0773
 1180SOL    HW1 3721   1.736   2.688   1.914 -1.9120 -0.6269  0.4577
 1180SOL    HW2 3722   1.696   2.691   2.072  1.3350  0.5965  1.3421
 1181SOL     OW 3723   1.986   2.177   2.646  0.5366 -0.3019  0.0395
 1181SOL    HW1 3724   2.048   2.159   2.722  0.7209 -0.5323 -0.1651
 1181SOL    HW2 3725   2.017   2.128   2.565  0.5873  0.2928 -0.3068
 1182SOL     OW 3726   2.033   2.781   2.041 -0.1465  0.0204  0.3654
 1182SOL    HW1 3727   1.943   2.761   2.003 -0.5065  1.6006  0.3244
 1182SOL    HW2 3728   2.030   2.771   2.141 -0.1404 -0.6846  0.3015
 1183SOL     OW 3729   3.443   0.433   3.162  0.4111 -0.3734  0.4602
 1183SOL    HW1 3730   3.413   0.340   3.141 -1.2223  0.0297  0.8447
 1183SOL    HW2 3731   3.404   0.461   3.250  0.4703  0.8484  0.1217
 1184SOL     OW 3732   1.955   2.996   4.040 -0.5845  0.0421 -0.3570
 1184SOL    HW1 3733   1.946   2.995   4.140  2.3336  0.2474 -0.0061
 1184SOL    HW2 3734   1.939   2.904   4.006  0.2575 -0.4699  0.5547
 1185SOL     OW 3735   2.594   4.298   4.693  0.9859 -0.2521  0.6419
 1185SOL    HW1 3736   2.568   4.368   4.759 -1.3202  0.3279 -0.7658
 1185SOL    HW2 3737   2.693   4.282   4.699  1.2653  1.7009  2.3127
 1186SOL     OW 3738   2.648   0.730   2.550  0.6326  0.0963  0.8670
 1186SOL    HW1 3739   2.710   0.652   2.555 -0.2448 -0.5597  1.9409
 1186SOL    HW2 3740   2.557   0.701   2.578  0.2448  1.4603  1.0817
 1187SOL     OW 3741   3.596   1.447   2.561  0.0613 -0.0668 -0.2836
 1187SOL    HW1 3742   3.547   1.392   2.628  0.8516  1.2518  1.4367
 1187SOL    HW2 3743   3.540   1.527   2.538  0.4891  0.3267  0.0444
 1188SOL     OW 3744   2.902   2.347   3.385  0.7665 -0.8815 -0.1276
 1188SOL    HW1 3745   2.993   2.385   3.402  0.5445 -0.8049  0.9143
 1188SOL    HW2 3746   2.871   2.296   3.465  1.0935 -3.4091 -1.4826
 1189SOL     OW 3747   2.714   2.962   1.751 -0.3730  0.7540  0.1072
 1189SOL    HW1 3748   2.658   3.032   1.795 -0.3962  0.3368  0.7534
 1189SOL    HW2 3749   2.795   2.944   1.807  0.3606  1.2662 -0.7613
 1190SOL     OW 3750   1.177   2.087   2.769 -0.0657  0.5944  0.1486
 1190SOL    HW1 3751   1.151   2.012   2.829  0.1675 -0.3309 -0.8716
 1190SOL    HW2 3752   1.178   2.055   2.674  1.6362  1.4295 -0.1710
 1191SOL     OW 3753   1.661   1.662   4.344 -0.6871 -0.6136  0.3341
 1191SOL    HW1 3754   1.568   1.625   4.347 -1.5894  1.4107 -0.3842
 1191SOL    HW2 3755   1.656   1.762   4.353  1.1221 -0.0846 -2.8594
 1192SOL     OW 3756   2.472   3.484   4.873 -0.5560  0.7651 -0.2804
 1192SOL    HW1 3757   2.505   3.448   4.786 -0.4420 -0.5737  0.2913
 1192SOL    HW2 3758   2.394   3.545   4.856 -0.1841  0.9577 -1.3470
 1193SOL     OW 3759   1.647   1.470   2.048  0.0770  0.6576 -0.1088
 1193SOL    HW1 3760   1.642   1.388   1.991 -1.2755  0.4156  0.3116
 1193SOL    HW2 3761   1.669   1.443   2.142 -1.1603  0.6570  0.2045
 1194SOL     OW 3762   2.074   4.474   1.647  0.2087 -0.0859  0.2418
 1194SOL    HW1 3763   2.152   4.419   1.675  0.3410 -0.4484 -0.7848
 1194SOL    HW2 3764   2.011   4.417   1.593 -1.3453 -0.1197  1.9823
 1195SOL     OW 3765   1.793   4.001   3.614  0.3269 -0.1912  0.1745
 1195SOL    HW1 3766   1.871   3.960   3.566 -0.1793 -0.5138 -0.3798
 1195SOL    HW2 3767   1.786   4.097   3.589 -0.7552 -0.6746 -1.4926
 1196SOL     OW 3768   2.951   0.505   3.334  0.2262 -0.1824 -0.0215
 1196SOL    HW1 3769   2.969   0.599   3.304  0.3300 -0.6191 -1.4042
 1196SOL    HW2 3770   3.002   0.442   3.276 -0.3018 -1.1186  0.5152
 1197SOL     OW 3771   1.855   1.179   2.684 -0.1262  0.3969  0.0880
 1197SOL    HW1 3772   1.824   1.247   2.751 -0.0589  1.9527 -1.3784
 1197SOL    HW2 3773   1.954   1.190   2.670  0.0316 -0.5498  0.4056
 1198SOL     OW 3774   2.730   3.653   4.939  0.6194  0.0702  0.1022
 1198SOL    HW1 3775   2.714   3.643   5.037  0.5089 -0.8952 -0.0045
 1198SOL    HW2 3776   2.711   3.748   4.912 -0.0156  0.1790  0.8889
 1199SOL     OW 3777   1.654   0.654   2.312 -0.0952  0.2045 -0.0726
 1199SOL    HW1 3778   1.656   0.656   2.212 -0.2147  0.4403 -0.0728
 1199SOL    HW2 3779   1.654   0.559   2.343 -0.0455  0.1295 -0.2957
 1200SOL     OW 3780   1.486   2.209   0.819  0.4756 -0.2202 -0.5210
 1200SOL    HW1 3781   1.502   2.168   0.729 -0.6745  1.7373 -1.6857
 1200SOL    HW2 3782   1.442   2.298   0.807  0.9568  0.4211  1.9763
 1201SOL     OW 3783   3.300   1.811   0.528 -0.5892  0.5174 -0.0909
 1201SOL    HW1 3784   3.216   1.766   0.497  0.5065 -0.9886 -1.0390
 1201SOL    HW2 3785   3.346   1.751   0.594  0.0149  1.0791  0.0012
 1202SOL     OW 3786   2.262   1.608   1.031  0.3773 -0.1690 -0.0107
 1202SOL    HW1 3787   2.205   1.678   0.987  1.6367  0.8163 -0.1181
 1202SOL    HW2 3788   2.282   1.536   0.964 -0.5737 -0.4438 -0.0199
 1203SOL     OW 3789   2.399   3.865   2.780 -0.1544 -0.4196 -0.3494
 1203SOL    HW1 3790   2.393   3.816   2.867 -1.6065  0.6544  0.2041
 1203SOL    HW2 3791   2.495   3.873   2.753  0.5910  1.4459  2.4751
 1204SOL     OW 3792   1.881   2.001   1.321 -0.1111 -0.3222  0.5853
 1204SOL    HW1 3793   1.888   1.982   1.419 -0.9069 -0.9326  0.5353
 1204SOL    HW2 3794   1.855   2.097   1.308  1.7634  0.2688  0.9052
 1205SOL     OW 3795   2.278   3.088   3.243 -0.4538 -0.3809  0.1020
 1205SOL    HW1 3796   2.257   2.996   3.209 -1.3068 -1.3085  2.8730
 1205SOL    HW2 3797   2.376   3.093   3.263 -0.2521 -0.3780 -0.8315
 1206SOL     OW 3798   3.710   1.843   2.296 -0.1804  0.0481 -0.9016
 1206SOL    HW1 3799   3.726   1.745   2.300 -1.7971 -0.2877 -1.6776
 1206SOL    HW2 3800   3.676   1.867   2.205  0.3582  1.3705 -0.7836
 1207SOL     OW 3801   2.315   1.516   0.183  0.4208  0.1943 -0.2294
 1207SOL    HW1 3802   2.348   1.545   0.273 -0.3013  1.1766 -0.2651
 1207SOL    HW2 3803   2.377   1.447   0.146 -0.3404 -1.7884  1.9120
 1208SOL     OW 3804   2.712   1.939   4.068  0.7156 -0.1435  0.4459
 1208SOL    HW1 3805   2.693   1.878   3.991  3.1232 -1.5858  0.8883
 1208SOL    HW2 3806   2.705   2.034   4.037  1.5196 -0.6826 -1.5208
 1209SOL     OW 3807   1.591   2.985   3.609 -0.3736  0.5636  0.4791
 1209SOL    HW1 3808   1.609   2.950   3.701  1.9672  0.9935  0.2363
 1209SOL    HW2 3809   1.592   3.085   3.611  2.8031  0.6386 -0.4595
 1210SOL     OW 3810   3.056   4.532   2.551 -0.0380  0.3600  0.0964
 1210SOL    HW1 3811   3.031   4.575   2.638 -2.9341  2.2301 -1.4886
 1210SOL    HW2 3812   3.117   4.594   2.501 -2.2772  1.7218 -1.1496
 1211SOL     OW 3813   3.109   4.443   3.786  0.3804 -0.0597  0.5160
 1211SOL    HW1 3814   3.191   4.490   3.755 -1.4701  1.6803 -2.2283
 1211SOL    HW2 3815   3.120   4.344   3.771  2.0028  0.1144  0.3630
 1212SOL     OW 3816   2.050   0.857   1.880 -0.2450  0.2412  0.2397
 1212SOL    HW1 3817   2.076   0.789   1.948  1.5017 -0.0298 -0.6360
 1212SOL    HW2 3818   2.070   0.948   1.916 -0.3184  0.1570  0.4957
 1213SOL     OW 3819   3.120   3.615   3.718 -0.4433 -0.3233 -0.2398
 1213SOL    HW1 3820   3.188   3.549   3.688 -1.6825 -0.7354 -2.3115
 1213SOL    HW2 3821   3.037   3.567   3.746 -0.8531  0.2799 -0.3857
 1214SOL     OW 3822   3.675   1.995   3.124 -0.4505  0.4824 -0.4240
 1214SOL    HW1 3823   3.745   2.054   3.166  1.0330 -1.5839  0.1294
 1214SOL    HW2 3824   3.700   1.979   3.028 -0.2347 -0.1623 -0.2589
 1215SOL     OW 3825   3.236   4.918   2.136 -0.2772  0.2991 -0.8934
 1215SOL    HW1 3826   3.194   4.859   2.067  0.6154 -0.2019 -1.0299
 1215SOL    HW2 3827   3.321   4.876   2.167  0.5412  1.6635 -1.2172
 1216SOL     OW 3828   1.681   4.517   3.646 -0.2075 -0.7278 -0.0017
 1216SOL    HW1 3829   1.762   4.552   3.599 -0.2849 -2.2249 -1.3065
 1216SOL    HW2 3830   1.616   4.592   3.660  0.5452  0.0870 -0.7390
 1217SOL     OW 3831   2.224   1.419   2.990 -0.3206 -0.3275  0.6328
 1217SOL    HW1 3832   2.216   1.339   3.050  1.2109 -1.1007 -0.1327
 1217SOL    HW2 3833   2.306   1.471   3.016 -0.2054 -0.1155 -0.1342
 1218SOL     OW 3834   3.338   3.041   0.863 -0.0994  0.0736  0.0538
 1218SOL    HW1 3835   3.405   3.018   0.934 -1.9434  0.0450  1.9202
 1218SOL    HW2 3836   3.301   2.956   0.825 -0.0117  0.0661 -0.0138
 1219SOL     OW 3837   3.196   3.398   0.676  0.1710  0.2187  0.1456
 1219SOL    HW1 3838   3.144   3.462   0.732 -0.3951  0.4015 -0.5674
 1219SOL    HW2 3839   3.144   3.377   0.593 -0.3512 -2.2818  0.9983
 1220SOL     OW 3840   2.726   0.920   4.214  0.2373  0.2640 -0.1848
 1220SOL    HW1 3841   2.645   0.897   4.161 -0.4017 -0.0866  0.9119
 1220SOL    HW2 3842   2.795   0.959   4.153 -0.9055  0.9649 -1.0754
 1221SOL     OW 3843   1.449   2.182   1.951  0.8766  0.1435 -0.6720
 1221SOL    HW1 3844   1.461   2.200   2.048 -0.6376  0.5195 -0.5359
 1221SOL    HW2 3845   1.517   2.234   1.899 -0.6253  2.9066 -0.0153
 1222SOL     OW 3846   1.806   3.311   2.774 -0.0756  0.2484 -0.4098
 1222SOL    HW1 3847   1.799   3.230   2.833 -1.1295 -1.5499 -2.7869
 1222SOL    HW2 3848   1.896   3.352   2.784 -0.4015  0.4267  2.8018
 1223SOL     OW 3849   2.727   0.790   0.138  0.3967 -0.6426 -0.8349
 1223SOL    HW1 3850   2.741   0.866   0.075  2.1014  0.3438  0.6553
 1223SOL    HW2 3851   2.671   0.720   0.093 -0.4228  1.0413 -2.5747
 1224SOL     OW 3852   3.120   1.628   0.411  0.4271  0.4518 -0.5633
 1224SOL    HW1 3853   3.136   1.534   0.443 -0.8873  0.6977  0.9091
 1224SOL    HW2 3854   3.094   1.625   0.315 -0.7528 -0.8234 -0.2417
 1225SOL     OW 3855   3.027   4.995   2.277  0.3553  0.6174 -0.2920
 1225SOL    HW1 3856   2.947   4.948   2.313  0.2677  1.1928  0.2948
 1225SOL    HW2 3857   3.087   4.929   2.233 -1.9378  0.5579 -3.6877
 1226SOL     OW 3858   3.600   0.979   2.353  0.1726 -0.1971 -0.0655
 1226SOL    HW1 3859   3.580   0.890   2.312  1.4486  0.1764 -1.5764
 1226SOL    HW2 3860   3.657   0.965   2.434 -0.6419 -0.8143  0.4170
 1227SOL     OW 3861   2.507   4.571   2.143  0.0802  0.0889  0.0159
 1227SOL    HW1 3862   2.588   4.569   2.085 -1.5160 -2.5380 -2.3623
 1227SOL    HW2 3863   2.481   4.666   2.160  1.7021  0.9717 -1.9834
 1228SOL     OW 3864   2.971   4.323   0.742  0.0847  0.2322 -0.2703
 1228SOL    HW1 3865   2.968   4.259   0.819  1.4144 -0.6347 -0.9090
 1228SOL    HW2 3866   2.948   4.274   0.658  1.6740  0.4262 -0.8449
 1229SOL     OW 3867   2.988   2.135   0.987 -0.0068 -0.1104  0.2994
 1229SOL    HW1 3868   3.016   2.218   0.938 -0.2379 -1.2600 -1.9222
 1229SOL    HW2 3869   3.035   2.056   0.947 -0.0893 -1.1212  2.0958
 1230SOL     OW 3870   3.432   4.235   2.635  0.2921 -0.4716  0.0824
 1230SOL    HW1 3871   3.351   4.202   2.586 -0.9239  0.3600  1.4327
 1230SOL    HW2 3872   3.467   4.161   2.693  0.2405 -0.6957 -0.1679
 1231SOL     OW 3873   2.149   0.688   2.064 -0.0275 -0.0706  0.4375
 1231SOL    HW1 3874   2.215   0.734   2.124 -0.2045  1.2070 -0.2997
 1231SOL    HW2 3875   2.080   0.643   2.120 -0.7876  1.9656  1.2450
 1232SOL     OW 3876   2.617   0.469   3.693  0.2259  0.8153 -0.2895
 1232SOL    HW1 3877   2.689   0.525   3.733 -0.3090 -0.2716  2.3763
 1232SOL    HW2 3878   2.647   0.437   3.603  3.1535  0.3488  0.7483
 1233SOL     OW 3879   2.424   1.857   0.518  0.2709  0.3852  0.6243
 1233SOL    HW1 3880   2.400   1.951   0.542  0.6231  0.8107 -0.5812
 1233SOL    HW2 3881   2.434   1.851   0.419 -0.2381 -1.0566  0.6468
 1234SOL     OW 3882   1.373   2.483   0.763  0.6937  0.3680  0.3139
 1234SOL    HW1 3883   1.386   2.499   0.860 -2.2893 -1.1338  1.0910
 1234SOL    HW2 3884   1.307   2.549   0.727 -1.1589 -1.3818  0.3105
 1235SOL     OW 3885   1.576   1.374   1.607  0.7486 -0.8325  0.7133
 1235SOL    HW1 3886   1.567   1.297   1.544  0.2030 -1.6175  1.7305
 1235SOL    HW2 3887   1.498   1.436   1.595  1.0704 -0.5458  0.0554
 1236SOL     OW 3888   1.976   3.749   3.058  0.2927 -0.0775 -0.2155
 1236SOL    HW1 3889   2.026   3.714   2.978 -1.3872 -0.7100 -1.0235
 1236SOL    HW2 3890   1.961   3.674   3.123  2.2059  0.5592  1.0628
 1237SOL     OW 3891   1.611   1.785   3.662  0.1703 -0.0994 -0.3117
 1237SOL    HW1 3892   1.514   1.765   3.655  0.2798 -1.1373  0.7867
 1237SOL    HW2 3893   1.647   1.808   3.571 -1.0967  0.4031 -0.7093
 1238SOL     OW 3894   2.633   3.820   1.416 -0.0790 -0.1164 -0.1394
 1238SOL    HW1 3895   2.659   3.851   1.508 -0.9196 -2.9862  1.2012
 1238SOL    HW2 3896   2.691   3.743   1.391 -0.3728  0.1559 -1.7268
 1239SOL     OW 3897   2.462   1.074   3.837 -0.3703  0.2346 -0.9611
 1239SOL    HW1 3898   2.375   1.050   3.794 -1.2458 -2.1728  1.8153
 1239SOL    HW2 3899   2.518   0.991   3.845  1.1916  1.2792 -0.5317
 1240SOL     OW 3900   2.243   0.250   1.201 -0.3028 -0.1907  0.4911
 1240SOL    HW1 3901   2.180   0.299   1.261  0.2979 -0.0209  0.9987
 1240SOL    HW2 3902   2.291   0.316   1.143 -2.3784 -0.4982 -1.7078
 1241SOL     OW 3903   2.298   0.844   0.942 -0.2981  0.2132 -0.1784
 1241SOL    HW1 3904   2.283   0.928   0.889 -1.1648  0.4321  0.3776
 1241SOL    HW2 3905   2.356   0.865   1.020 -1.0484  0.4668  0.3296
 1242SOL     OW 3906   1.903   3.495   3.153  0.1345  0.3790 -0.3499
 1242SOL    HW1 3907   1.929   3.406   3.114  3.6271  0.9533  0.3941
 1242SOL    HW2 3908   1.876   3.482   3.248  0.9120  0.1199 -0.1558
 1243SOL     OW 3909   2.806   4.825   2.338  0.5983  0.3925  0.0880
 1243SOL    HW1 3910   2.819   4.734   2.377 -1.2867 -0.0012 -0.1006
 1243SOL    HW2 3911   2.824   4.822   2.240 -2.4921 -0.6180 -0.5536
 1244SOL     OW 3912   2.770   1.345   0.943 -0.5149 -0.1622  0.1568
 1244SOL    HW1 3913   2.855   1.306   0.907 -0.6458  0.7046 -1.1695
 1244SOL    HW2 3914   2.792   1.426   0.997 -0.5789  1.3876 -2.0283
 1245SOL     OW 3915   3.113   3.306   1.363  0.3245 -0.0124  0.1107
 1245SOL    HW1 3916   3.146   3.324   1.456 -2.0036 -0.5046  1.1064
 1245SOL    HW2 3917   3.176   3.243   1.318  1.5628  0.3179  1.2898
 1246SOL     OW 3918   3.417   2.576   2.535  0.1627 -0.6391 -0.1407
 1246SOL    HW1 3919   3.395   2.608   2.443  1.4840  3.1521  0.6489
 1246SOL    HW2 3920   3.332   2.557   2.585 -0.7932  1.3244 -0.9167
 1247SOL     OW 3921   2.963   2.171   0.205  0.1177  0.0915 -0.4705
 1247SOL    HW1 3922   2.875   2.168   0.252 -0.9517 -0.3822 -2.3719
 1247SOL    HW2 3923   3.037   2.156   0.271 -1.2583 -0.2766  1.0490
 1248SOL     OW 3924   3.290   3.004   0.370 -0.4474  0.6172 -0.2824
 1248SOL    HW1 3925   3.356   2.928   0.365  0.0501  1.0473 -0.3657
 1248SOL    HW2 3926   3.292   3.044   0.461 -1.8815 -0.4875  0.2642
 1249SOL     OW 3927   2.682   2.737   4.605 -0.0701 -0.8993  0.4586
 1249SOL    HW1 3928   2.781   2.723   4.602  0.7081  3.2970  0.7101
 1249SOL    HW2 3929   2.649   2.717   4.697  0.5477 -2.1077  0.4371
 1250SOL     OW 3930   2.831   0.739   3.624 -0.3810 -0.8555  0.0170
 1250SOL    HW1 3931   2.837   0.733   3.525 -1.5264  0.8588 -0.1906
 1250SOL    HW2 3932   2.904   0.797   3.659 -0.3394 -0.9708  0.1251
 1251SOL     OW 3933   1.672   0.265   1.259 -0.4236  0.5604  0.5349
 1251SOL    HW1 3934   1.602   0.261   1.188 -0.0254  2.3690  0.0043
 1251SOL    HW2 3935   1.650   0.339   1.323  0.2502  0.1999  1.2086
 1252SOL     OW 3936   2.645   1.337   2.221 -0.2071  0.4177  0.6171
 1252SOL    HW1 3937   2.679   1.246   2.248 -0.5628  0.3382  0.8080
 1252SOL    HW2 3938   2.722   1.394   2.193  0.2292  0.5745  2.0258
 1253SOL     OW 3939   1.489   3.152   2.828  0.0494  0.1662  0.2655
 1253SOL    HW1 3940   1.540   3.213   2.767 -1.8099 -0.0649 -1.6600
 1253SOL    HW2 3941   1.481   3.195   2.918  0.9972  1.5712 -0.2903
 1254SOL     OW 3942   2.258   4.034   2.605  1.0956  0.3010 -0.1935
 1254SOL    HW1 3943   2.309   3.963   2.654 -0.5969 -1.2144 -0.5272
 1254SOL    HW2 3944   2.304   4.122   2.617  2.4186 -0.5720  1.5062
 1255SOL     OW 3945   2.737   4.470   1.318 -0.3837 -0.0276 -0.3770
 1255SOL    HW1 3946   2.797   4.419   1.256 -0.3439 -1.8616  1.0647
 1255SOL    HW2 3947   2.674   4.526   1.265 -0.5982 -1.8114 -2.1052
 1256SOL     OW 3948   2.552   3.550   0.139 -0.1564 -0.3067  0.4770
 1256SOL    HW1 3949   2.520   3.527   0.047 -0.4859 -1.5747  0.8914
 1256SOL    HW2 3950   2.474   3.577   0.195  0.0883  0.8164  0.3064
 1257SOL     OW 3951   3.292   3.945   0.752  0.0030  0.3632 -0.5632
 1257SOL    HW1 3952   3.264   3.899   0.836 -0.2355 -1.2095 -1.4481
 1257SOL    HW2 3953   3.211   3.966   0.697  0.2031  0.7532 -0.7138
 1258SOL     OW 3954   2.019   1.393   0.427  0.3059 -0.2623  0.0651
 1258SOL    HW1 3955   1.956   1.365   0.499  1.3730  1.7142  1.8711
 1258SOL    HW2 3956   2.087   1.320   0.413  0.5888 -0.3520  1.6908
 1259SOL     OW 3957   2.506   0.056   1.130 -0.1336  0.1131 -0.0771
 1259SOL    HW1 3958   2.465  -0.026   1.090  0.7251  0.4656 -1.7724
 1259SOL    HW2 3959   2.440   0.099   1.191 -0.8094 -1.5073  0.4002
 1260SOL     OW 3960   1.972   0.882   0.798  0.4604  0.2514  0.4901
 1260SOL    HW1 3961   2.016   0.879   0.887 -0.0120 -0.4479  0.7142
 1260SOL    HW2 3962   1.942   0.789   0.773  1.6652  0.2104 -0.9429
 1261SOL     OW 3963   2.412   0.254   2.155 -0.6582 -0.1869 -0.0398
 1261SOL    HW1 3964   2.345   0.254   2.081  0.5220 -0.0278 -1.1451
 1261SOL    HW2 3965   2.498   0.214   2.122  1.1238  3.2113  0.0328
 1262SOL     OW 3966   2.861   1.672   0.507 -0.1217 -0.3850  0.3646
 1262SOL    HW1 3967   2.959   1.665   0.484 -0.0464 -1.7012  0.9661
 1262SOL    HW2 3968   2.811   1.607   0.450 -0.6911  0.4734 -0.1229
 1263SOL     OW 3969   3.552   3.092   2.426 -0.2560 -0.6913 -0.0908
 1263SOL    HW1 3970   3.562   3.053   2.517  0.2187 -1.9168 -0.6359
 1263SOL    HW2 3971   3.521   3.020   2.363 -1.8685  0.4345 -0.6474
 1264SOL     OW 3972   2.623   3.075   2.020 -0.0901 -0.6595  0.1586
 1264SOL    HW1 3973   2.611   3.068   2.119  1.6729  0.8314  0.5413
 1264SOL    HW2 3974   2.542   3.040   1.974 -0.9048 -1.4849  2.1192
 1265SOL     OW 3975   2.783   2.472   0.945  0.0044  0.3479  0.1093
 1265SOL    HW1 3976   2.719   2.409   0.900 -1.8806  1.9590  0.3607
 1265SOL    HW2 3977   2.730   2.539   0.998  1.9652  1.4378  0.7744
 1266SOL     OW 3978   1.865   1.400   1.195  0.1112  0.1464 -0.2452
 1266SOL    HW1 3979   1.927   1.417   1.271  1.4156 -0.4249 -1.1275
 1266SOL    HW2 3980   1.773   1.430   1.219  0.6975  0.8947  1.1616
 1267SOL     OW 3981   3.108   4.096   4.233 -0.1367 -0.4502 -0.1861
 1267SOL    HW1 3982   3.203   4.124   4.245 -1.1573  2.8701  1.5307
 1267SOL    HW2 3983   3.095   4.060   4.141  2.2825  1.3793 -1.3544
 1268SOL     OW 3984   1.323   3.613   2.942 -0.3277  0.8302  0.1498
 1268SOL    HW1 3985   1.226   3.637   2.934 -0.1170  1.1811 -1.8216
 1268SOL    HW2 3986   1.378   3.685   2.899  0.8068  0.5684  1.1278
 1269SOL     OW 3987   3.042   4.887   4.146  0.1225 -0.3224 -0.1736
 1269SOL    HW1 3988   2.995   4.843   4.069  1.1142  1.0516 -1.6179
 1269SOL    HW2 3989   3.020   4.837   4.230  0.5923 -3.1145 -1.5840
 1270SOL     OW 3990   3.073   1.313   2.619 -0.4756  0.5002  0.4549
 1270SOL    HW1 3991   3.032   1.396   2.582 -1.9539  0.7624  2.4489
 1270SOL    HW2 3992   3.139   1.337   2.690 -0.8777 -0.0004  1.0141
 1271SOL     OW 3993   1.682   3.488   2.976 -0.1458  0.1808  0.9125
 1271SOL    HW1 3994   1.712   3.443   2.892  0.1823  2.8667 -0.5205
 1271SOL    HW2 3995   1.758   3.491   3.041  0.4279  0.4249  0.2376
 1272SOL     OW 3996   2.257   3.120   1.114 -0.0784 -0.2246  0.5139
 1272SOL    HW1 3997   2.212   3.072   1.039 -0.1360  0.8365 -0.1319
 1272SOL    HW2 3998   2.190   3.142   1.185 -0.4216  0.5844 -0.0546
 1273SOL     OW 3999   2.680   2.105   3.127  0.2973  0.1843 -0.1701
 1273SOL    HW1 4000   2.603   2.052   3.162 -0.4930  1.2134 -0.3158
 1273SOL    HW2 4001   2.663   2.202   3.141  1.4199  0.4527 -0.5196
 1274SOL     OW 4002   3.248   1.094   3.025 -0.2559  0.5323 -0.4046
 1274SOL    HW1 4003   3.279   1.115   3.118 -1.4056 -1.0716  0.3923
 1274SOL    HW2 4004   3.294   1.011   2.994 -1.8583 -0.4941 -0.1507
 1275SOL     OW 4005   3.130   3.731   4.631 -0.3910 -0.4220 -0.0726
 1275SOL    HW1 4006   3.051   3.703   4.686 -0.8684  0.5383 -0.2607
 1275SOL    HW2 4007   3.187   3.793   4.685 -1.3752  1.3141 -0.9548
 1276SOL     OW 4008   2.327   2.240   4.450  0.1032 -0.4033  0.3782
 1276SOL    HW1 4009   2.343   2.326   4.498  0.5482  1.5496 -2.9519
 1276SOL    HW2 4010   2.228   2.227   4.439  0.0410 -0.1420  0.6168
 1277SOL     OW 4011   2.080   4.244   0.928 -0.4470 -0.2836 -0.0168
 1277SOL    HW1 4012   2.016   4.231   1.004  0.1257  0.0787  0.5378
 1277SOL    HW2 4013   2.171   4.215   0.957 -0.2414 -0.2323 -0.6047
 1278SOL     OW 4014   1.618   2.348   0.105 -0.0540  0.3799 -0.2253
 1278SOL    HW1 4015   1.623   2.248   0.103  0.3244  0.3550  1.1583
 1278SOL    HW2 4016   1.629   2.383   0.011 -0.8698 -0.8873 -0.8197
 1279SOL     OW 4017   2.320   3.667   4.735 -0.5005  0.3083  0.2594
 1279SOL    HW1 4018   2.287   3.618   4.654  0.0022  0.7173 -0.1965
 1279SOL    HW2 4019   2.378   3.743   4.707  1.5884 -0.9124  1.0721
 1280SOL     OW 4020   3.052   3.598   1.874  0.5227  0.4044  0.0952
 1280SOL    HW1 4021   3.108   3.665   1.825 -1.4232  1.3755 -0.9186
 1280SOL    HW2 4022   2.956   3.614   1.853 -0.0989 -1.9330  0.8496
 1281SOL     OW 4023   1.744   3.035   1.425  0.0031 -0.0185 -0.5029
 1281SOL    HW1 4024   1.810   3.106   1.449 -0.0802 -0.0631 -0.1480
 1281SOL    HW2 4025   1.679   3.072   1.358  0.1344  0.1490 -0.5389
 1282SOL     OW 4026   2.243   2.732   3.936 -0.5295  0.0319  0.0381
 1282SOL    HW1 4027   2.220   2.773   4.024 -1.1861  0.0790 -0.1473
 1282SOL    HW2 4028   2.166   2.676   3.905  0.6726 -2.1202  0.7284
 1283SOL     OW 4029   1.480   2.895   1.753  0.1292  0.3276 -0.5190
 1283SOL    HW1 4030   1.447   2.887   1.659  0.1229 -2.6192 -0.3526
 1283SOL    HW2 4031   1.574   2.930   1.752  1.1162 -2.1838 -1.8826
 1284SOL     OW 4032   2.572   3.006   0.789 -0.1209 -0.0064  0.1015
 1284SOL    HW1 4033   2.541   2.979   0.698  0.1083 -0.5374  0.1733
 1284SOL    HW2 4034   2.498   2.992   0.855 -0.1457 -0.0375  0.0665
 1285SOL     OW 4035   2.363   1.450   0.853  0.6073  0.1169 -0.1995
 1285SOL    HW1 4036   2.298   1.397   0.799 -1.3158  1.2943  0.8379
 1285SOL    HW2 4037   2.424   1.387   0.901 -0.1101 -1.0650 -0.7850
 1286SOL     OW 4038   2.743   3.902   4.050 -0.1604  0.4941  0.4325
 1286SOL    HW1 4039   2.801   3.981   4.030  0.9169 -0.0822  1.2056
 1286SOL    HW2 4040   2.662   3.932   4.100 -0.1539  1.2052  0.0265
 1287SOL     OW 4041   2.632   4.410   3.595 -0.3828  0.4639 -0.4896
 1287SOL    HW1 4042   2.605   4.495   3.639 -0.0637  0.3076  0.0140
 1287SOL    HW2 4043   2.722   4.421   3.554 -0.8981  0.7725 -1.5717
 1288SOL     OW 4044   2.140   1.006   2.716 -0.0053 -0.1979  0.4717
 1288SOL    HW1 4045   2.226   1.014   2.665  0.1130  1.4182  0.8742
 1288SOL    HW2 4046   2.157   0.955   2.800  0.7280  0.7219  0.8935
 1289SOL     OW 4047   3.095   4.842   2.809 -0.5478  0.0740  0.1798
 1289SOL    HW1 4048   3.085   4.940   2.828 -1.3928  0.1468 -0.5561
 1289SOL    HW2 4049   3.179   4.828   2.757 -1.8364  0.8374 -2.2831
 1290SOL     OW 4050   1.602   2.395   3.054 -0.1651  0.1650  0.6151
 1290SOL    HW1 4051   1.572   2.299   3.059  0.9625 -0.4644 -2.6139
 1290SOL    HW2 4052   1.536   2.447   3.001  0.7971  0.4064 -0.3753
 1291SOL     OW 4053   2.030   4.191   3.196 -0.4537 -0.5375 -0.5365
 1291SOL    HW1 4054   2.038   4.092   3.209  0.7133 -0.3915 -0.0246
 1291SOL    HW2 4055   2.031   4.236   3.286  3.7927  0.2252 -0.7925
 1292SOL     OW 4056   2.106   0.705   2.587 -0.2342  0.1201 -0.0458
 1292SOL    HW1 4057   2.081   0.800   2.606  0.5719  0.4159 -0.4180
 1292SOL    HW2 4058   2.156   0.701   2.501 -0.5689 -0.6986 -0.2152
 1293SOL     OW 4059   3.479   1.544   3.588 -0.4024 -0.7956  0.8131
 1293SOL    HW1 4060   3.387   1.579   3.605  0.2187  0.2568  2.2072
 1293SOL    HW2 4061   3.533   1.614   3.541  0.4171 -0.3803  2.3045
 1294SOL     OW 4062   2.132   3.773   3.942  0.3012  0.3072  0.6671
 1294SOL    HW1 4063   2.037   3.749   3.965  0.4949 -0.5695  0.5840
 1294SOL    HW2 4064   2.132   3.833   3.862 -0.0573 -3.3678 -2.3979
 1295SOL     OW 4065   2.127   4.435   3.659  0.4871 -0.2477 -0.2289
 1295SOL    HW1 4066   2.201   4.471   3.602 -0.1773  0.0148 -0.9663
 1295SOL    HW2 4067   2.053   4.503   3.662 -0.4815 -1.2256 -1.0300
 1296SOL     OW 4068   1.918   4.222   0.184 -0.3561 -0.2729 -0.1307
 1296SOL    HW1 4069   1.943   4.267   0.098  3.1135 -0.8050  0.4660
 1296SOL    HW2 4070   1.849   4.277   0.231  0.6603  2.2238 -1.3676
 1297SOL     OW 4071   2.516   0.168   2.830 -0.0126  0.0810 -0.4169
 1297SOL    HW1 4072   2.564   0.095   2.783  1.6903  1.5816 -1.1347
 1297SOL    HW2 4073   2.426   0.181   2.786 -0.6256 -1.9537  0.1599
 1298SOL     OW 4074   3.094   3.884   0.124 -0.0101  0.1608  0.1228
 1298SOL    HW1 4075   3.114   3.839   0.037  0.6520 -0.8390  0.7588
 1298SOL    HW2 4076   3.098   3.816   0.197 -0.4449  1.0027  0.9555
 1299SOL     OW 4077   2.444   1.807   1.297 -0.0862  0.5657 -0.2747
 1299SOL    HW1 4078   2.350   1.774   1.301 -0.4164  1.5555  1.3091
 1299SOL    HW2 4079   2.483   1.785   1.208 -1.3296 -1.1223 -0.4613
 1300SOL     OW 4080   3.173   2.337   2.950  0.1573  0.1231 -0.3603
 1300SOL    HW1 4081   3.165   2.406   3.022  1.4963  1.2818 -1.2798
 1300SOL    HW2 4082   3.261   2.291   2.957 -0.5161 -1.1911 -0.0661
 1301SOL     OW 4083   2.289   2.677   1.777  0.1718  0.0583  0.1177
 1301SOL    HW1 4084   2.353   2.600   1.781 -0.6372 -0.6113  0.4900
 1301SOL    HW2 4085   2.306   2.738   1.855  1.6899  0.9945 -0.8908
 1302SOL     OW 4086   1.936   2.636   3.212 -1.1729  0.0129 -0.3620
 1302SOL    HW1 4087   1.976   2.608   3.126 -0.5429 -1.9464  0.5219
 1302SOL    HW2 4088   1.855   2.581   3.230 -1.3276  0.4388  0.2895
 1303SOL     OW 4089   1.829   2.477   2.871 -0.1365 -0.1416 -0.2362
 1303SOL    HW1 4090   1.794   2.433   2.954  1.9384 -0.0459  0.7483
 1303SOL    HW2 4091   1.847   2.574   2.891 -0.2423  0.0402 -1.0088
 1304SOL     OW 4092   2.452   0.194   3.425 -0.3305 -0.5974  0.2861
 1304SOL    HW1 4093   2.524   0.199   3.494 -0.1564 -0.1800  0.0797
 1304SOL    HW2 4094   2.491   0.209   3.334 -0.7406  0.1361  0.2194
 1305SOL     OW 4095   1.723   3.458   1.325  0.0936 -0.6819 -0.1096
 1305SOL    HW1 4096   1.754   3.495   1.238  1.1481 -3.2108 -0.8926
 1305SOL    HW2 4097   1.796   3.469   1.393 -0.2504  0.1780  0.1250
 1306SOL     OW 4098   2.128   1.841   2.348 -0.2420 -0.0449  0.4307
 1306SOL    HW1 4099   2.093   1.830   2.255 -0.5023 -2.0529  0.7228
 1306SOL    HW2 4100   2.204   1.778   2.362 -0.9247 -0.5753  1.9140
 1307SOL     OW 4101   2.231   3.684   4.360 -0.0147  0.1899  1.1881
 1307SOL    HW1 4102   2.217   3.752   4.431  0.1277  1.4814  0.0279
 1307SOL    HW2 4103   2.267   3.729   4.278 -0.9267 -1.1191  0.0242
 1308SOL     OW 4104   2.321   3.953   0.350 -0.2910  0.3438 -0.1637
 1308SOL    HW1 4105   2.419   3.943   0.367 -0.4634 -0.5003  0.3906
 1308SOL    HW2 4106   2.289   3.875   0.297 -0.5131  1.0414 -1.0862
 1309SOL     OW 4107   2.269   4.936   0.916 -0.4208  0.2708 -0.3323
 1309SOL    HW1 4108   2.232   5.026   0.939  0.5874  1.7071 -3.6807
 1309SOL    HW2 4109   2.364   4.946   0.886 -0.3920 -1.8467 -1.1400
 1310SOL     OW 4110   2.551   1.312   3.752 -0.6242 -0.5064  0.0037
 1310SOL    HW1 4111   2.565   1.224   3.799  1.7472  0.5138  1.3954
 1310SOL    HW2 4112   2.592   1.308   3.661 -1.5583 -1.1924 -0.3966
 1311SOL     OW 4113   1.568   0.604   1.529  0.6213  0.3282 -0.3821
 1311SOL    HW1 4114   1.531   0.661   1.456 -0.5373  0.6009  0.3831
 1311SOL    HW2 4115   1.649   0.556   1.496  0.3335  0.7285 -1.7201
 1312SOL     OW 4116   2.356   1.314   3.431 -0.1323 -0.4465  0.4958
 1312SOL    HW1 4117   2.425   1.387   3.428  2.0443 -2.3624  0.8800
 1312SOL    HW2 4118   2.278   1.346   3.485  1.3968  1.1125  1.9549
 1313SOL     OW 4119   3.118   4.471   1.046 -0.1722 -0.5266 -0.6813
 1313SOL    HW1 4120   3.047   4.508   0.987  0.7712  1.1878 -0.8226
 1313SOL    HW2 4121   3.188   4.427   0.990 -0.7098 -1.4970 -0.6026
 1314SOL     OW 4122   3.326   0.939   0.776 -0.2246 -0.0178  0.1805
 1314SOL    HW1 4123   3.323   0.853   0.725  1.8788  0.6473 -1.2064
 1314SOL    HW2 4124   3.421   0.968   0.785 -0.9040  2.3352  0.3221
 1315SOL     OW 4125   1.458   3.512   3.142  0.1263  0.1397  0.3835
 1315SOL    HW1 4126   1.384   3.557   3.092  0.3149 -1.2628 -1.2217
 1315SOL    HW2 4127   1.543   3.520   3.091  0.8134  0.5080  1.5345
 1316SOL     OW 4128   3.463   2.153   3.107  0.0049  0.0065  0.9060
 1316SOL    HW1 4129   3.532   2.080   3.109  0.1137  0.0525 -0.2861
 1316SOL    HW2 4130   3.464   2.196   3.017 -0.0790  1.4746  1.5758
 1317SOL     OW 4131   2.443   3.367   1.297  0.0379  0.0203 -0.2985
 1317SOL    HW1 4132   2.389   3.296   1.344 -0.7569  1.5484  1.2132
 1317SOL    HW2 4133   2.401   3.385   1.208 -0.8786 -0.1004  0.0907
 1318SOL     OW 4134   3.015   3.767   2.837  0.1335 -0.1264 -0.0567
 1318SOL    HW1 4135   2.925   3.746   2.799  0.0343 -3.3911  1.6073
 1318SOL    HW2 4136   3.005   3.781   2.936  1.3268  0.7732 -0.0463
 1319SOL     OW 4137   1.683   1.952   4.337 -0.1055 -0.6038 -0.1291
 1319SOL    HW1 4138   1.604   2.007   4.362 -0.1566 -0.9749  0.5311
 1319SOL    HW2 4139   1.730   1.995   4.259 -1.1045 -0.5328 -0.7038
 1320SOL     OW 4140   1.484   2.588   4.822  0.1295  0.1265  0.6221
 1320SOL    HW1 4141   1.514   2.669   4.771  1.6923 -0.1741  1.0310
 1320SOL    HW2 4142   1.558   2.521   4.825 -1.9527 -2.6109 -2.1368
 1321SOL     OW 4143   2.829   4.161   3.989 -0.4691 -0.2149  0.0531
 1321SOL    HW1 4144   2.802   4.207   3.905  0.1615  0.0964  0.0179
 1321SOL    HW2 4145   2.922   4.125   3.979 -0.4307 -0.2728  0.5750
 1322SOL     OW 4146   2.297   0.190   2.650 -0.1316  0.0753 -0.4538
 1322SOL    HW1 4147   2.203   0.223   2.658  0.3657  1.8285 -1.2542
 1322SOL    HW2 4148   2.302   0.123   2.576 -1.2849 -2.4799  1.6053
 1323SOL     OW 4149   3.260   2.763   0.094  0.3185  0.0875  0.3778
 1323SOL    HW1 4150   3.260   2.667   0.122 -0.9509 -0.5902 -1.7272
 1323SOL    HW2 4151   3.331   2.777   0.024  0.6875  0.7764  0.8704
 1324SOL     OW 4152   3.133   0.984   0.400  0.5791 -0.1498 -0.2445
 1324SOL    HW1 4153   3.070   0.919   0.443 -0.7021  1.1922  0.0025
 1324SOL    HW2 4154   3.090   1.022   0.318  1.1391  0.6873 -0.1620
 1325SOL     OW 4155   2.592   4.005   0.051 -0.1130  0.3099 -0.6689
 1325SOL    HW1 4156   2.618   3.995  -0.045 -0.4543 -1.1879 -0.6196
 1325SOL    HW2 4157   2.669   4.047   0.101  0.5783 -0.1411 -1.3355
 1326SOL     OW 4158   3.256   1.149   1.333 -0.9960 -0.1076  0.0317
 1326SOL    HW1 4159   3.307   1.073   1.291  0.2390  0.6107  0.2044
 1326SOL    HW2 4160   3.221   1.119   1.422 -0.6402 -0.5113  0.0402
 1327SOL     OW 4161   2.364   3.599   3.705 -0.5605  0.6658  0.4042
 1327SOL    HW1 4162   2.341   3.643   3.792 -2.4132 -0.3148  0.4535
 1327SOL    HW2 4163   2.415   3.515   3.723 -0.0497  0.9879  0.4796
 1328SOL     OW 4164   1.960   4.474   0.481 -0.2962  1.0876  0.7322
 1328SOL    HW1 4165   1.955   4.443   0.576  0.7732  0.5763  0.6343
 1328SOL    HW2 4166   2.008   4.406   0.427 -2.3699  0.5515 -0.5517
 1329SOL     OW 4167   2.477   0.796   2.210 -0.0102  0.1276 -0.1233
 1329SOL    HW1 4168   2.551   0.750   2.162  1.1931  0.5632  1.2357
 1329SOL    HW2 4169   2.447   0.875   2.157  0.2490 -0.2587 -0.8544
 1330SOL     OW 4170   2.540   4.268   2.217 -0.2425 -0.2633 -0.1937
 1330SOL    HW1 4171   2.536   4.229   2.125  2.2655 -0.4004 -0.2912
 1330SOL    HW2 4172   2.545   4.367   2.210 -2.3775 -0.0881 -0.0653
 1331SOL     OW 4173   1.735   2.097   3.543 -0.2344 -0.0236 -0.5700
 1331SOL    HW1 4174   1.756   2.003   3.516 -1.2057 -0.8287  1.3122
 1331SOL    HW2 4175   1.686   2.142   3.468  0.9750 -0.7225 -1.8189
 1332SOL     OW 4176   2.771   3.018   3.866 -0.2399 -0.4027 -0.2127
 1332SOL    HW1 4177   2.821   2.937   3.837 -0.8295 -0.4703 -1.0614
 1332SOL    HW2 4178   2.686   2.990   3.909  0.7433 -0.3191  1.9122
 1333SOL     OW 4179   2.116   1.427   3.493  0.2241  0.3960  0.1008
 1333SOL    HW1 4180   2.127   1.491   3.417  0.4067 -0.0745 -0.2771
 1333SOL    HW2 4181   2.127   1.476   3.579  1.4237  0.6806 -0.1979
 1334SOL     OW 4182   3.219   3.771   3.916  0.3739  0.3459  0.2075
 1334SOL    HW1 4183   3.186   3.728   4.000 -1.3250  1.2577  0.0503
 1334SOL    HW2 4184   3.184   3.720   3.838 -0.6220  1.2533  0.0394
 1335SOL     OW 4185   2.079   4.307   1.285  0.0207  0.0893  0.4375
 1335SOL    HW1 4186   2.081   4.402   1.254  2.0470 -0.5280 -1.5957
 1335SOL    HW2 4187   2.036   4.302   1.375  2.8579  3.3574  2.1553
 1336SOL     OW 4188   2.952   1.519   2.464  0.0726 -0.5047 -0.4257
 1336SOL    HW1 4189   2.860   1.559   2.465  0.3930  0.2662 -0.5206
 1336SOL    HW2 4190   3.003   1.556   2.386  1.0663  0.5107  0.6623
 1337SOL     OW 4191   1.656   2.180   1.226  0.1710 -1.1279  0.3371
 1337SOL    HW1 4192   1.734   2.240   1.214 -0.3629 -0.4712  0.0745
 1337SOL    HW2 4193   1.613   2.197   1.315 -0.3354 -0.6826  0.0170
 1338SOL     OW 4194   2.839   2.935   0.155 -0.1508 -0.2108 -0.0858
 1338SOL    HW1 4195   2.835   2.848   0.202  1.0876 -0.0110  0.4457
 1338SOL    HW2 4196   2.935   2.959   0.139 -0.4798  0.8624 -0.5774
 1339SOL     OW 4197   2.993   2.851   4.867 -0.1893 -0.1314  0.3836
 1339SOL    HW1 4198   3.038   2.911   4.933  0.3747  0.6969 -0.7248
 1339SOL    HW2 4199   2.918   2.901   4.823  0.7593  0.0623 -1.0932
 1340SOL     OW 4200   1.406   2.053   3.090 -0.9581 -0.5721 -0.2415
 1340SOL    HW1 4201   1.345   1.974   3.098 -0.7438 -0.9560 -2.0282
 1340SOL    HW2 4202   1.377   2.123   3.155 -0.5412 -2.4655  2.1183
 1341SOL     OW 4203   2.043   1.522   0.175 -0.4320 -0.0564 -0.0763
 1341SOL    HW1 4204   2.003   1.474   0.253  0.0851  3.3475  2.5305
 1341SOL    HW2 4205   2.142   1.510   0.177 -0.5461 -1.7652 -1.6626
 1342SOL     OW 4206   1.708   2.651   3.457 -0.0472  0.2610  0.2965
 1342SOL    HW1 4207   1.676   2.580   3.394 -0.1004  0.0388  0.5728
 1342SOL    HW2 4208   1.755   2.608   3.534  2.2216  0.6307 -0.7890
 1343SOL     OW 4209   3.381   0.542   3.443  0.0330  0.0244 -0.0974
 1343SOL    HW1 4210   3.419   0.633   3.428 -0.2158  0.1392 -0.0285
 1343SOL    HW2 4211   3.293   0.550   3.490 -0.6110 -0.1762 -1.2152
 1344SOL     OW 4212   3.519   0.120   2.677  1.1740 -0.1253  0.1624
 1344SOL    HW1 4213   3.518   0.156   2.584 -1.0163 -2.5763 -0.8968
 1344SOL    HW2 4214   3.474   0.185   2.738 -0.0846  0.2268 -1.0998
 1345SOL     OW 4215   2.195   2.004   1.311  0.6095  0.3124  0.1925
 1345SOL    HW1 4216   2.151   2.093   1.326  1.1318  0.4099  1.2883
 1345SOL    HW2 4217   2.202   1.956   1.398 -1.5899 -1.7687 -0.6754
 1346SOL     OW 4218   2.677   2.336   3.639 -0.1657 -0.3537  0.1788
 1346SOL    HW1 4219   2.620   2.345   3.557 -1.0711  0.2608  0.8609
 1346SOL    HW2 4220   2.725   2.248   3.636 -0.4782 -0.5021 -0.8219
 1347SOL     OW 4221   1.802   2.451   0.423 -0.2976  0.3366 -0.0031
 1347SOL    HW1 4222   1.731   2.496   0.368 -0.1926 -0.2452 -0.6352
 1347SOL    HW2 4223   1.759   2.399   0.497 -0.4952  0.4557 -0.0352
 1348SOL     OW 4224   2.897   2.699   0.272  0.6739  0.8043  0.2617
 1348SOL    HW1 4225   2.828   2.631   0.297 -0.2141  2.0337  1.3031
 1348SOL    HW2 4226   2.944   2.670   0.189  1.0153 -1.5534  1.2073
 1349SOL     OW 4227   1.724   1.997   2.734  0.1255  0.4176  0.0610
 1349SOL    HW1 4228   1.645   2.025   2.788  0.1844 -0.1201  0.4333
 1349SOL    HW2 4229   1.789   2.073   2.728  0.0759  0.5074  0.6656
 1350SOL     OW 4230   2.244   4.730   0.738  0.6382 -0.1337 -0.0193
 1350SOL    HW1 4231   2.180   4.739   0.661  1.2115  1.2661 -0.3601
 1350SOL    HW2 4232   2.243   4.815   0.791  2.2405 -0.0736 -0.0569
 1351SOL     OW 4233   3.501   0.356   1.997 -0.2578  0.2163 -0.0465
 1351SOL    HW1 4234   3.564   0.322   1.927 -0.0634  1.0803 -0.3003
 1351SOL    HW2 4235   3.418   0.300   1.997  0.4959 -0.9400  0.2891
 1352SOL     OW 4236   1.119   1.990   2.486  0.1092 -0.0892 -1.1787
 1352SOL    HW1 4237   1.208   1.996   2.440  1.1254 -1.4617  0.4879
 1352SOL    HW2 4238   1.081   1.899   2.473  0.8268 -0.8191  1.2764
 1353SOL     OW 4239   3.072   4.009   3.966  0.2643 -0.1296 -0.0714
 1353SOL    HW1 4240   3.092   3.911   3.955 -1.4133 -0.4105 -0.8338
 1353SOL    HW2 4241   3.145   4.062   3.923  0.4324 -1.0673 -0.9820
 1354SOL     OW 4242   1.850   3.400   3.410 -0.9383 -0.1549 -0.3922
 1354SOL    HW1 4243   1.764   3.439   3.445  0.3638  0.7396  2.0252
 1354SOL    HW2 4244   1.883   3.331   3.473 -1.3367 -2.7637 -2.8363
 1355SOL     OW 4245   1.724   3.026   1.751 -0.0855  0.2551  0.2470
 1355SOL    HW1 4246   1.778   2.994   1.673 -1.1051 -2.8831  0.6788
 1355SOL    HW2 4247   1.701   3.123   1.738  1.7554  0.4582 -2.1357
 1356SOL     OW 4248   2.369   1.088   2.573  0.4571  0.1932 -0.6351
 1356SOL    HW1 4249   2.452   1.058   2.525  1.8040  0.8082  1.1935
 1356SOL    HW2 4250   2.391   1.169   2.628 -2.2744  2.7677 -2.9703
 1357SOL     OW 4251   1.294   3.345   2.225  0.1622 -0.3557  0.4025
 1357SOL    HW1 4252   1.357   3.270   2.205  1.3542  0.8281 -0.5288
 1357SOL    HW2 4253   1.335   3.431   2.193 -1.2970  0.6538  1.1367
 1358SOL     OW 4254   2.182   0.997   3.731  0.0907  0.0502  0.3089
 1358SOL    HW1 4255   2.230   0.919   3.692  1.5633  0.7628  0.6198
 1358SOL    HW2 4256   2.127   1.041   3.659  0.8225 -0.1031 -0.3518
 1359SOL     OW 4257   2.416   0.394   1.042 -0.4019 -0.1944  0.3758
 1359SOL    HW1 4258   2.450   0.327   0.976  2.1616  0.4973  0.9023
 1359SOL    HW2 4259   2.352   0.455   0.996  2.4876  1.2639 -2.0317
 1360SOL     OW 4260   2.499   2.989   0.526  0.3143 -0.0513 -0.0293
 1360SOL    HW1 4261   2.539   2.903   0.495  0.5106  0.4423 -1.2069
 1360SOL    HW2 4262   2.554   3.065   0.490  0.1917  0.5661  1.0644
 1361SOL     OW 4263   2.695   0.441   0.526 -0.0455 -0.5945 -0.0699
 1361SOL    HW1 4264   2.711   0.395   0.613  1.2266  1.3256  0.7886
 1361SOL    HW2 4265   2.742   0.391   0.454  1.1714 -0.7798  0.8103
 1362SOL     OW 4266   1.465   4.107   2.253  0.0729 -0.4849 -0.2640
 1362SOL    HW1 4267   1.429   4.181   2.308 -0.2917  0.0612 -1.2038
 1362SOL    HW2 4268   1.474   4.138   2.158 -0.2619 -1.6925 -0.7157
 1363SOL     OW 4269   2.483   4.159   3.210 -0.0934  0.1926  0.3722
 1363SOL    HW1 4270   2.480   4.136   3.113 -0.7867 -1.4124  0.7420
 1363SOL    HW2 4271   2.553   4.104   3.255 -2.8692 -2.6241  1.5846
 1364SOL     OW 4272   3.212   2.366   0.488 -0.5241 -0.4541  0.0277
 1364SOL    HW1 4273   3.195   2.275   0.451  0.8030 -0.0190 -1.8007
 1364SOL    HW2 4274   3.125   2.408   0.514 -1.2562 -1.7944 -0.1717
 1365SOL     OW 4275   2.354   1.777   2.993  0.4311 -0.0665 -0.5148
 1365SOL    HW1 4276   2.402   1.799   2.908  0.4422  0.1885 -0.4419
 1365SOL    HW2 4277   2.380   1.685   3.022  1.1424  0.1963 -0.2951
 1366SOL     OW 4278   3.340   1.913   2.065 -0.2073  0.4219 -0.1451
 1366SOL    HW1 4279   3.269   1.911   1.995  0.4440 -2.0760 -0.8276
 1366SOL    HW2 4280   3.302   1.950   2.150 -1.8485  0.6312 -0.9361
 1367SOL     OW 4281   2.180   1.094   2.346  0.0907 -0.4910  0.4864
 1367SOL    HW1 4282   2.247   1.070   2.416  1.5816  1.7429 -0.0681
 1367SOL    HW2 4283   2.088   1.071   2.379  0.9456 -1.7495  2.1180
 1368SOL     OW 4284   1.728   1.710   0.402 -0.8622  0.2595 -0.0121
 1368SOL    HW1 4285   1.814   1.744   0.439 -0.0514  0.8022 -2.2586
 1368SOL    HW2 4286   1.685   1.649   0.469  1.0174  0.3372  1.3300
 1369SOL     OW 4287   2.529   3.664   2.567  0.5552 -0.5338  0.0744
 1369SOL    HW1 4288   2.454   3.716   2.526  1.2043  0.6945  0.4185
 1369SOL    HW2 4289   2.577   3.613   2.495  0.3305 -0.1316 -0.3624
 1370SOL     OW 4290   3.333   1.524   0.807  0.0983  0.0627 -0.1811
 1370SOL    HW1 4291   3.304   1.605   0.859  0.0793  0.6739 -1.1356
 1370SOL    HW2 4292   3.389   1.467   0.867 -1.7263 -0.3794  1.2319
 1371SOL     OW 4293   2.327   3.608   0.284  0.0510 -0.2071  0.5958
 1371SOL    HW1 4294   2.354   3.610   0.380 -1.7574 -1.4112  1.1732
 1371SOL    HW2 4295   2.231   3.581   0.277  0.2690 -0.6086 -1.5951
 1372SOL     OW 4296   1.397   2.769   0.554 -0.5354 -0.0719 -0.6831
 1372SOL    HW1 4297   1.494   2.743   0.549 -0.4339  0.3055 -0.7029
 1372SOL    HW2 4298   1.350   2.737   0.472 -0.3120  0.2108 -0.9232
 1373SOL     OW 4299   3.051   3.138   4.609  0.1091  0.2261 -0.0584
 1373SOL    HW1 4300   3.134   3.189   4.632 -0.4352  1.9246 -1.5764
 1373SOL    HW2 4301   2.998   3.122   4.692  0.4473  1.9263  0.5236
 1374SOL     OW 4302   1.407   3.244   1.486  0.0514  0.1110  0.9730
 1374SOL    HW1 4303   1.477   3.252   1.415 -0.2952  0.1361  0.6374
 1374SOL    HW2 4304   1.452   3.243   1.575  0.3335  3.0235  0.9516
 1375SOL     OW 4305   2.497   2.870   4.840 -0.2282 -0.2367 -0.2385
 1375SOL    HW1 4306   2.498   2.916   4.751 -1.8946 -0.2819 -0.3084
 1375SOL    HW2 4307   2.472   2.774   4.827 -2.8459  0.2905  0.4466
 1376SOL     OW 4308   2.008   2.587   3.950 -0.3142  0.1369  0.2748
 1376SOL    HW1 4309   1.944   2.577   4.027  0.4031 -0.1024  0.8581
 1376SOL    HW2 4310   1.957   2.594   3.865 -1.1236  0.2820  0.7652
 1377SOL     OW 4311   2.587   0.063   1.518 -0.4526  0.1746  0.2433
 1377SOL    HW1 4312   2.489   0.079   1.505 -0.2282  1.1997 -0.3738
 1377SOL    HW2 4313   2.624   0.017   1.437 -0.3779  0.0096  0.3709
 1378SOL     OW 4314   2.736   1.674   1.685 -0.1094  0.0454  0.0122
 1378SOL    HW1 4315   2.661   1.641   1.742  0.4521 -1.0679  0.1380
 1378SOL    HW2 4316   2.794   1.596   1.659 -1.1254  0.2228 -3.2711
 1379SOL     OW 4317   2.583   3.305   1.702 -0.1594  0.0289  0.6341
 1379SOL    HW1 4318   2.553   3.392   1.664  0.2002 -0.9135 -1.9823
 1379SOL    HW2 4319   2.675   3.284   1.669 -0.1695 -1.2931  1.3554
 1380SOL     OW 4320   3.562   3.965   4.192  0.4760  0.4952  0.0510
 1380SOL    HW1 4321   3.613   3.904   4.252  1.1327  0.1113 -0.8762
 1380SOL    HW2 4322   3.520   3.911   4.118  0.6845  1.1014 -0.5224
 1381SOL     OW 4323   1.798   3.153   4.793  0.0859 -0.7092  0.2106
 1381SOL    HW1 4324   1.863   3.214   4.838  1.3845  0.1685 -2.5835
 1381SOL    HW2 4325   1.725   3.207   4.752 -0.9692 -1.4485  1.0756
 1382SOL     OW 4326   2.035   2.771   4.850 -0.6505  0.8136 -0.1636
 1382SOL    HW1 4327   2.093   2.847   4.820 -1.1740  1.4398  0.3779
 1382SOL    HW2 4328   2.012   2.714   4.771  0.4971  0.6839 -0.4285
 1383SOL     OW 4329   1.223   3.063   1.383  0.2840 -0.4923  0.2948
 1383SOL    HW1 4330   1.131   3.099   1.370  0.1781 -1.6642 -4.1478
 1383SOL    HW2 4331   1.282   3.134   1.422 -2.2435  0.4717  2.6850
 1384SOL     OW 4332   1.977   3.167   1.515  0.3445 -0.2080  0.0705
 1384SOL    HW1 4333   2.035   3.112   1.575 -0.8279 -1.0268  0.4676
 1384SOL    HW2 4334   2.035   3.211   1.446  1.6254  0.2214  1.3623
 1385SOL     OW 4335   2.840   4.118   1.627  1.1120  0.6472  0.0919
 1385SOL    HW1 4336   2.888   4.161   1.704  1.3651  1.5351 -0.5352
 1385SOL    HW2 4337   2.769   4.181   1.594 -1.5652 -1.2127  1.9249
 1386SOL     OW 4338   2.223   0.422   2.267  0.2066  0.5621  0.4129
 1386SOL    HW1 4339   2.297   0.355   2.256 -1.4935 -1.7284  1.8046
 1386SOL    HW2 4340   2.158   0.411   2.193  1.3767  2.8718 -1.0515
 1387SOL     OW 4341   2.673   4.849   3.238  1.0116  0.0135 -0.0736
 1387SOL    HW1 4342   2.741   4.898   3.183  1.0390  0.2910  0.2038
 1387SOL    HW2 4343   2.652   4.762   3.194  2.2689 -0.5177  0.3343
 1388SOL     OW 4344   3.065   3.191   3.359 -0.1723 -0.5590 -0.0305
 1388SOL    HW1 4345   2.977   3.234   3.336  0.0974  0.3362  0.5785
 1388SOL    HW2 4346   3.064   3.163   3.455 -0.1091 -1.3692 -0.2544
 1389SOL     OW 4347   1.541   1.922   1.986  0.1052  0.2795 -0.0948
 1389SOL    HW1 4348   1.546   1.899   2.083  1.6906  0.1853 -0.1707
 1389SOL    HW2 4349   1.509   2.016   1.977  0.3750  0.4440  0.5477
 1390SOL     OW 4350   1.938   1.817   2.108 -0.4167 -0.1760 -0.0738
 1390SOL    HW1 4351   1.847   1.777   2.119 -0.6230  0.5868  1.1437
 1390SOL    HW2 4352   1.950   1.843   2.012 -1.7015  0.2428 -0.1463
 1391SOL     OW 4353   1.293   2.007   1.814  0.3924 -0.9303 -0.2449
 1391SOL    HW1 4354   1.196   2.031   1.819 -0.1570 -2.8331 -0.6451
 1391SOL    HW2 4355   1.347   2.073   1.865 -1.1872 -0.1772  0.5088
 1392SOL     OW 4356   3.251   1.425   1.410 -0.0401 -0.4408  0.7039
 1392SOL    HW1 4357   3.240   1.443   1.508  0.6522  0.4433  0.6345
 1392SOL    HW2 4358   3.239   1.328   1.393 -0.9054 -0.4950  1.5627
 1393SOL     OW 4359   2.551   3.355   4.605 -0.7855  0.1262 -0.6146
 1393SOL    HW1 4360   2.553   3.429   4.538  1.8741  0.5352 -0.1886
 1393SOL    HW2 4361   2.644   3.321   4.620 -1.2483  0.0248  2.8401
 1394SOL     OW 4362   1.511   2.420   1.411  0.2242  0.3169  0.3465
 1394SOL    HW1 4363   1.450   2.469   1.473 -1.8284 -0.5933 -0.8562
 1394SOL    HW2 4364   1.518   2.325   1.440  3.0597  0.8315  1.8305
 1395SOL     OW 4365   2.438   2.620   4.233  0.4517 -0.3673  0.0463
 1395SOL    HW1 4366   2.502   2.650   4.162  0.4986 -0.1778  0.1656
 1395SOL    HW2 4367   2.490   2.584   4.311  0.3692 -2.1326 -0.6785
 1396SOL     OW 4368   1.894   3.845   2.192  0.0811 -0.2687 -0.3571
 1396SOL    HW1 4369   1.876   3.879   2.284  0.1715  1.1551 -0.8380
 1396SOL    HW2 4370   1.924   3.750   2.197  0.3117 -0.1388  1.0888
 1397SOL     OW 4371   2.002   4.365   4.983  0.8958  0.2413  0.2952
 1397SOL    HW1 4372   2.084   4.310   4.968  1.2284  0.7324  0.2675
 1397SOL    HW2 4373   1.988   4.425   4.904 -0.2590 -0.7800 -0.3119
 1398SOL     OW 4374   2.798   2.098   3.642  0.2401 -0.0879  0.3772
 1398SOL    HW1 4375   2.712   2.063   3.606  0.2746 -0.5917  0.7697
 1398SOL    HW2 4376   2.854   2.022   3.673  0.7104  0.2561  0.3889
 1399SOL     OW 4377   2.304   1.200   1.319  0.1033  0.5798 -0.1402
 1399SOL    HW1 4378   2.265   1.180   1.230 -0.9839  0.4475  0.3584
 1399SOL    HW2 4379   2.266   1.286   1.353  0.8276  0.8447  0.0170
 1400SOL     OW 4380   2.632   2.689   4.009  0.1626  0.0761 -0.3046
 1400SOL    HW1 4381   2.641   2.611   3.948 -2.6672 -0.7900  0.2135
 1400SOL    HW2 4382   2.591   2.766   3.958  1.2203  0.6288 -0.3536
 1401SOL     OW 4383   2.119   2.851   3.174 -0.0229  0.2384 -0.3343
 1401SOL    HW1 4384   2.086   2.758   3.192 -1.3678  0.8072  0.2770
 1401SOL    HW2 4385   2.062   2.916   3.224  0.5691  1.4382 -1.1836
 1402SOL     OW 4386   2.962   3.210   4.930 -0.3505  0.4977 -0.1906
 1402SOL    HW1 4387   2.864   3.229   4.928 -0.0471  2.1203 -0.6232
 1402SOL    HW2 4388   2.978   3.129   4.988 -2.0639 -0.7486 -1.3611
 1403SOL     OW 4389   2.917   1.891   3.743 -0.6760  0.2414  0.2716
 1403SOL    HW1 4390   2.986   1.879   3.671  0.5765 -1.8682  1.7158
 1403SOL    HW2 4391   2.852   1.815   3.739 -2.1183  1.4517 -0.1594
 1404SOL     OW 4392   3.263   2.854   1.566 -0.9818 -0.2952 -0.0236
 1404SOL    HW1 4393   3.240   2.782   1.631 -2.0463  1.7278  1.9644
 1404SOL    HW2 4394   3.205   2.845   1.485 -2.1781 -0.8104  0.8664
 1405SOL     OW 4395   3.518   4.573   2.910 -0.4766 -0.6974  0.4671
 1405SOL    HW1 4396   3.611   4.611   2.906 -0.3895 -0.8244  1.1430
 1405SOL    HW2 4397   3.475   4.582   2.820 -0.2544  0.4701  0.4627
 1406SOL     OW 4398   3.148   3.998   3.443 -0.3188 -0.1657  0.1012
 1406SOL    HW1 4399   3.196   3.916   3.474 -1.1235 -0.0414  1.7911
 1406SOL    HW2 4400   3.154   4.004   3.344  3.7922  0.2430  0.1967
 1407SOL     OW 4401   2.576   4.362   4.378 -0.0599  0.3295  0.7173
 1407SOL    HW1 4402   2.665   4.377   4.335  0.1077 -0.4346  0.7840
 1407SOL    HW2 4403   2.575   4.406   4.468  0.3851  0.0349  0.8716
 1408SOL     OW 4404   2.273   2.364   4.996 -0.2285  0.5417  0.1222
 1408SOL    HW1 4405   2.343   2.318   4.942 -0.1192 -1.4916  1.8619
 1408SOL    HW2 4406   2.246   2.305   5.072 -1.0209  2.8842  1.7741
 1409SOL     OW 4407   1.756   1.107   0.835  0.3613  0.4745  0.0620
 1409SOL    HW1 4408   1.689   1.105   0.908 -0.5275  0.0309 -0.7458
 1409SOL    HW2 4409   1.794   1.015   0.823  0.4997  0.5442 -0.0418
 1410SOL     OW 4410   2.987   2.011   1.535  0.3844 -0.3023  0.5426
 1410SOL    HW1 4411   3.018   2.039   1.445 -0.5346 -2.5141 -0.5392
 1410SOL    HW2 4412   3.027   2.071   1.604 -0.1980  2.5083 -1.3949
 1411SOL     OW 4413   1.954   4.355   2.457 -0.1789 -0.9580  0.3367
 1411SOL    HW1 4414   1.988   4.266   2.426 -0.3659 -0.5355 -1.1594
 1411SOL    HW2 4415   1.857   4.363   2.435 -0.3255 -0.6396  1.0760
 1412SOL     OW 4416   3.285   2.992   3.780 -0.8865  0.1215 -0.2269
 1412SOL    HW1 4417   3.197   3.022   3.743 -1.2880 -0.6024  0.1241
 1412SOL    HW2 4418   3.349   2.977   3.705 -0.8320  1.3460 -0.4443
 1413SOL     OW 4419   1.917   2.999   2.243  0.3099  0.5950 -0.1008
 1413SOL    HW1 4420   1.916   2.911   2.196 -1.0248  0.8436 -0.5781
 1413SOL    HW2 4421   1.861   3.065   2.192  0.7881  1.5461  0.5731
 1414SOL     OW 4422   2.302   3.270   1.712 -0.4445 -0.3425  0.6507
 1414SOL    HW1 4423   2.266   3.196   1.656 -0.6201 -0.5384  1.0178
 1414SOL    HW2 4424   2.397   3.288   1.686 -0.3663 -0.7726  0.6353
 1415SOL     OW 4425   2.436   3.111   4.155  0.0701  0.8604  0.1115
 1415SOL    HW1 4426   2.346   3.092   4.194 -0.3993  1.3813 -0.6923
 1415SOL    HW2 4427   2.456   3.209   4.166  1.0920  0.5399  1.4018
 1416SOL     OW 4428   1.931   1.960   0.089 -0.4458  0.1882 -0.2170
 1416SOL    HW1 4429   1.914   1.862   0.097  0.1813 -0.1122 -2.0716
 1416SOL    HW2 4430   1.919   2.003   0.178  0.2685 -1.7259  0.8640
 1417SOL     OW 4431   1.727   4.453   1.386 -0.1700  0.6127  0.1585
 1417SOL    HW1 4432   1.652   4.491   1.439 -1.7785  0.2836 -1.7322
 1417SOL    HW2 4433   1.800   4.520   1.379 -0.3000  0.9894  1.9485
 1418SOL     OW 4434   2.125   1.731   4.414 -0.0170 -0.0930 -0.3544
 1418SOL    HW1 4435   2.199   1.668   4.392 -0.2956 -0.7748  0.6210
 1418SOL    HW2 4436   2.046   1.680   4.447  0.6166  0.8427  2.9475
 1419SOL     OW 4437   1.782   4.260   3.564  0.0722 -0.1601  0.2415
 1419SOL    HW1 4438   1.861   4.305   3.522  0.1830 -0.4441  0.1482
 1419SOL    HW2 4439   1.719   4.330   3.596  1.4277  0.1489  2.4069
 1420SOL     OW 4440   2.422   4.005   1.466  0.1148  0.0303  0.5711
 1420SOL    HW1 4441   2.465   3.922   1.428  0.4689  0.0966  0.8173
 1420SOL    HW2 4442   2.361   4.044   1.398  0.6399  0.0716  0.1118
 1421SOL     OW 4443   2.342   1.981   1.658 -0.9495 -0.2793 -0.0972
 1421SOL    HW1 4444   2.429   1.943   1.628 -1.3923 -1.6054  0.2182
 1421SOL    HW2 4445   2.270   1.912   1.645 -1.9372  0.7508 -0.2644
 1422SOL     OW 4446   3.094   0.037   3.806  0.0910 -0.3383 -0.4932
 1422SOL    HW1 4447   3.162   0.029   3.733  0.6862  2.3704 -0.3409
 1422SOL    HW2 4448   3.037   0.118   3.789 -2.5647 -2.0232 -0.1376
 1423SOL     OW 4449   3.356   3.715   4.924 -0.4761 -0.2725  0.7693
 1423SOL    HW1 4450   3.350   3.617   4.903  0.4122  0.0130 -1.0507
 1423SOL    HW2 4451   3.408   3.727   5.008 -1.4697 -1.3916  1.5738
 1424SOL     OW 4452   2.372   3.108   4.641  0.3724  0.3708  0.0941
 1424SOL    HW1 4453   2.446   3.172   4.664  1.3060 -0.4348 -0.5885
 1424SOL    HW2 4454   2.406   3.040   4.577 -1.6830  1.5558 -2.4616
 1425SOL     OW 4455   3.115   1.138   1.877 -0.0528 -0.2565  0.0434
 1425SOL    HW1 4456   3.017   1.152   1.891 -0.3502  0.3123 -2.1718
 1425SOL    HW2 4457   3.161   1.134   1.966 -2.0492 -0.4147  1.1277
 1426SOL     OW 4458   2.949   1.026   3.052 -0.0916  0.4078 -0.1386
 1426SOL    HW1 4459   3.041   0.991   3.034 -0.6825  0.0728 -3.0077
 1426SOL    HW2 4460   2.883   0.952   3.038 -0.9060  1.0500  0.2466
 1427SOL     OW 4461   3.154   1.124   0.649  0.0672  0.0686  0.1493
 1427SOL    HW1 4462   3.220   1.059   0.687  1.1172  0.9127 -0.1759
 1427SOL    HW2 4463   3.115   1.086   0.565  0.1109 -0.4483  0.3579
 1428SOL     OW 4464   2.608   4.289   0.792 -0.3519  0.1103 -0.3361
 1428SOL    HW1 4465   2.634   4.201   0.832 -1.0384 -0.1300 -0.4172
 1428SOL    HW2 4466   2.595   4.278   0.693 -0.9520  0.1899 -0.2660
 1429SOL     OW 4467   2.014   0.333   2.052  0.0666 -0.3431 -0.2082
 1429SOL    HW1 4468   1.949   0.336   1.976 -0.1045  0.7873 -0.0299
 1429SOL    HW2 4469   1.988   0.259   2.114 -0.1910 -0.8379 -0.8935
 1430SOL     OW 4470   2.103   2.302   3.930  0.7362 -0.7444 -0.5982
 1430SOL    HW1 4471   2.031   2.233   3.923  0.6018 -0.4996 -1.9250
 1430SOL    HW2 4472   2.065   2.385   3.972 -0.3531  0.0669 -2.9468
 1431SOL     OW 4473   2.474   3.537   1.595  0.0800 -0.2814  0.2226
 1431SOL    HW1 4474   2.478   3.572   1.501 -1.1311 -0.2629  0.1625
 1431SOL    HW2 4475   2.393   3.575   1.641 -0.5522 -1.9646  0.5693
 1432SOL     OW 4476   2.518   1.442   2.428 -0.0871 -0.0330 -0.5112
 1432SOL    HW1 4477   2.528   1.377   2.503 -1.4919 -0.0299 -0.2916
 1432SOL    HW2 4478   2.578   1.415   2.353 -0.8190 -1.7607 -0.5326
 1433SOL     OW 4479   3.624   2.938   1.566  0.0724 -0.2434  0.2000
 1433SOL    HW1 4480   3.593   2.880   1.641  0.3997  0.7036  1.0937
 1433SOL    HW2 4481   3.566   3.019   1.561 -1.2403 -1.2075 -1.8936
 1434SOL     OW 4482   2.301   3.049   0.059  0.1942 -0.5701 -0.1731
 1434SOL    HW1 4483   2.374   3.093   0.006  0.5755 -0.2024  0.6184
 1434SOL    HW2 4484   2.256   3.119   0.115 -0.2143 -0.9414 -0.0388
 1435SOL     OW 4485   3.005   0.294   1.349  0.2586 -0.6521 -0.2913
 1435SOL    HW1 4486   2.942   0.244   1.290  0.0369  0.8857 -1.3904
 1435SOL    HW2 4487   3.066   0.350   1.293  1.6700 -1.0002  0.8292
 1436SOL     OW 4488   3.200   2.556   2.677 -0.1856 -0.8491  0.0359
 1436SOL    HW1 4489   3.116   2.513   2.711 -0.4137  0.3162  1.0030
 1436SOL    HW2 4490   3.250   2.595   2.754  0.4926 -0.2149 -0.7120
 1437SOL     OW 4491   2.162   2.067   4.715  0.4799  0.1848 -0.0680
 1437SOL    HW1 4492   2.225   2.024   4.649  0.4762  0.1643 -0.0582
 1437SOL    HW2 4493   2.068   2.047   4.688  0.4898 -0.5148  0.4072
 1438SOL     OW 4494   3.172   2.929   2.973 -0.3198  0.2312  0.0294
 1438SOL    HW1 4495   3.076   2.954   2.967 -0.0112  1.5578  0.2406
 1438SOL    HW2 4496   3.228   3.012   2.971  0.6401 -0.1338  4.0818
 1439SOL     OW 4497   2.565   3.589   2.021  0.2883  0.3065 -0.1128
 1439SOL    HW1 4498   2.614   3.502   2.019  0.8176  0.5873  0.4441
 1439SOL    HW2 4499   2.592   3.641   2.102 -0.1346  0.9278 -0.3589
 1440SOL     OW 4500   1.924   2.430   0.095  0.2304 -0.5102 -0.2175
 1440SOL    HW1 4501   2.005   2.488   0.103  0.0062 -0.0201 -1.3363
 1440SOL    HW2 4502   1.846   2.477   0.137 -0.2759  0.7085 -2.3690
 1441SOL     OW 4503   2.009   3.275   2.039 -0.3884 -0.0927  0.3349
 1441SOL    HW1 4504   1.934   3.333   2.072 -0.8927 -1.0925  0.9805
 1441SOL    HW2 4505   2.081   3.273   2.109 -0.7000 -0.8314  0.6399
 1442SOL     OW 4506   1.870   4.037   2.005 -0.0329 -0.0150  0.6787
 1442SOL    HW1 4507   1.778   4.073   2.020 -1.0497 -1.6011 -1.1659
 1442SOL    HW2 4508   1.883   3.956   2.063  0.3039  0.3348  1.0986
 1443SOL     OW 4509   1.611   1.295   3.056  0.1097 -0.1825  0.0640
 1443SOL    HW1 4510   1.589   1.198   3.050  1.7818 -0.7675  1.9165
 1443SOL    HW2 4511   1.599   1.325   3.151 -1.2746  1.7093 -0.6413
 1444SOL     OW 4512   2.786   2.328   4.649  0.9242 -0.3313 -0.3666
 1444SOL    HW1 4513   2.807   2.398   4.718  1.2609 -0.0976 -0.6963
 1444SOL    HW2 4514   2.688   2.310   4.649  0.9613 -0.5673  0.3895
 1445SOL     OW 4515   2.467   2.953   2.253  0.1428  0.3741 -0.0693
 1445SOL    HW1 4516   2.384   2.901   2.272  1.1845 -2.0289 -1.6108
 1445SOL    HW2 4517   2.478   3.024   2.323 -2.5150 -0.0132  0.8728
 1446SOL     OW 4518   3.163   1.919   1.208  0.0290  0.0627 -0.5433
 1446SOL    HW1 4519   3.086   1.981   1.219 -0.1187 -0.0585 -0.8773
 1446SOL    HW2 4520   3.174   1.864   1.290  0.4154  0.8140 -0.0797
 1447SOL     OW 4521   1.730   3.895   0.786 -0.0653  0.0107  0.0618
 1447SOL    HW1 4522   1.731   3.961   0.860 -0.0676  0.4879 -0.3562
 1447SOL    HW2 4523   1.656   3.918   0.722  0.8103  0.4376 -0.8223
 1448SOL     OW 4524   1.220   2.678   2.733 -0.0768 -0.0627  0.6857
 1448SOL    HW1 4525   1.204   2.767   2.690  4.9028  0.8530  0.1436
 1448SOL    HW2 4526   1.229   2.691   2.832  0.2754  0.0026  0.6474
 1449SOL     OW 4527   2.281   1.090   0.808  0.0819 -0.3075 -0.0771
 1449SOL    HW1 4528   2.355   1.133   0.756 -0.8431 -2.2193 -3.2391
 1449SOL    HW2 4529   2.195   1.101   0.759 -1.0183 -1.6245  1.4382
 1450SOL     OW 4530   2.337   3.199   0.543  0.2884 -0.3031  0.8891
 1450SOL    HW1 4531   2.372   3.106   0.534 -1.2104 -0.7405 -1.4521
 1450SOL    HW2 4532   2.387   3.260   0.481  0.7090  0.3022  1.7974
 1451SOL     OW 4533   2.585   0.568   2.082 -0.3272  0.9419 -0.0924
 1451SOL    HW1 4534   2.492   0.555   2.047 -0.0689  0.9632 -0.7994
 1451SOL    HW2 4535   2.597   0.510   2.163  0.4225 -2.6050 -2.4694
 1452SOL     OW 4536   3.607   1.431   3.839 -0.3708  0.0089  0.2665
 1452SOL    HW1 4537   3.549   1.350   3.831  0.4987 -0.6394  0.4154
 1452SOL    HW2 4538   3.594   1.489   3.759 -0.5304 -0.5830 -0.1368
 1453SOL     OW 4539   2.418   0.521   3.190  0.9290 -0.1144  0.1756
 1453SOL    HW1 4540   2.356   0.519   3.268 -2.4847  0.1304 -2.3146
 1453SOL    HW2 4541   2.447   0.615   3.172 -1.1210  0.3777 -0.8173
 1454SOL     OW 4542   1.422   2.611   0.290  0.1459  0.3534  0.1008
 1454SOL    HW1 4543   1.395   2.642   0.199 -2.7187  0.9334  1.0396
 1454SOL    HW2 4544   1.418   2.511   0.294 -0.5525  0.3709 -0.1839
 1455SOL     OW 4545   1.825   2.877   4.322 -0.0766 -0.1020 -0.0009
 1455SOL    HW1 4546   1.758   2.930   4.269 -1.6855 -0.6539  1.3869
 1455SOL    HW2 4547   1.776   2.815   4.383  1.7478 -0.9196  0.6866
 1456SOL     OW 4548   3.550   3.010   2.663  0.3193 -0.0626  0.0718
 1456SOL    HW1 4549   3.454   3.022   2.686  0.9108  1.9336  1.8311
 1456SOL    HW2 4550   3.575   2.914   2.672 -1.5960 -0.6771 -0.8808
 1457SOL     OW 4551   3.256   2.669   2.334  0.5741 -0.0375  0.3490
 1457SOL    HW1 4552   3.211   2.650   2.421 -0.1307 -1.7806 -0.3572
 1457SOL    HW2 4553   3.196   2.641   2.259  2.6656 -2.1816 -0.6549
 1458SOL     OW 4554   2.596   1.085   4.390 -0.3850 -0.1145  0.4898
 1458SOL    HW1 4555   2.529   1.109   4.320 -0.1625 -2.2818 -0.5407
 1458SOL    HW2 4556   2.651   1.008   4.358  1.1413  0.1926  2.2182
 1459SOL     OW 4557   2.461   1.559   3.082 -0.0591  0.5461  0.0504
 1459SOL    HW1 4558   2.457   1.545   3.181 -0.1284  1.9414  0.2669
 1459SOL    HW2 4559   2.556   1.553   3.051 -0.1508 -1.0282 -0.0023
 1460SOL     OW 4560   1.304   2.423   2.999 -0.1138  0.2021  0.0965
 1460SOL    HW1 4561   1.315   2.521   2.989 -1.7507  0.6454  1.9317
 1460SOL    HW2 4562   1.244   2.389   2.926 -0.2982  0.7525 -0.0125
 1461SOL     OW 4563   3.600   2.916   0.236  0.8353  0.0590  0.0109
 1461SOL    HW1 4564   3.665   2.945   0.306  0.9905  1.1722 -0.5850
 1461SOL    HW2 4565   3.589   2.988   0.168 -0.7753 -0.2298 -0.0851
 1462SOL     OW 4566   1.067   3.675   2.887  0.0342 -0.4635 -0.2397
 1462SOL    HW1 4567   0.968   3.662   2.886 -0.2243  1.1587  0.8590
 1462SOL    HW2 4568   1.093   3.735   2.811 -0.0507  0.3966  0.3975
 1463SOL     OW 4569   1.831   3.887   2.459 -0.2025  0.3629 -0.5391
 1463SOL    HW1 4570   1.902   3.956   2.464  0.4444 -0.1124 -2.3068
 1463SOL    HW2 4571   1.743   3.928   2.482  0.5153  1.1215  0.9830
 1464SOL     OW 4572   3.125   0.515   3.864 -0.0455  0.6058 -0.8998
 1464SOL    HW1 4573   3.165   0.593   3.912  0.1651 -0.1267  0.1657
 1464SOL    HW2 4574   3.157   0.430   3.907 -1.0430 -0.0486 -1.3922
 1465SOL     OW 4575   1.915   3.666   2.574  0.5381 -0.3862  0.1120
 1465SOL    HW1 4576   1.867   3.732   2.517  1.0109 -2.0021 -2.2654
 1465SOL    HW2 4577   1.856   3.638   2.650 -1.0377  0.0299 -0.9316
 1466SOL     OW 4578   2.738   3.950   1.959 -0.5638  0.1417  0.0628
 1466SOL    HW1 4579   2.722   3.930   2.056 -0.4773  0.1521  0.0795
 1466SOL    HW2 4580   2.836   3.952   1.942 -0.5863 -0.7766 -0.2170
 1467SOL     OW 4581   3.184   1.306   1.114 -0.2491  0.2165  0.4788
 1467SOL    HW1 4582   3.200   1.247   1.193  2.8922  0.8317  0.4605
 1467SOL    HW2 4583   3.180   1.401   1.145  2.5245  0.6195 -0.0703
 1468SOL     OW 4584   1.884   0.260   1.559  0.2168  0.5012 -0.1229
 1468SOL    HW1 4585   1.970   0.304   1.533  0.6998  1.2271  2.4462
 1468SOL    HW2 4586   1.878   0.170   1.514  2.2402  0.4946 -0.4747
 1469SOL     OW 4587   3.064   3.900   1.654 -0.1275 -0.2326 -0.4433
 1469SOL    HW1 4588   3.012   3.982   1.631  0.3191 -0.0408 -0.7945
 1469SOL    HW2 4589   3.072   3.843   1.572  0.8820  0.1201 -0.6128
 1470SOL     OW 4590   2.450   1.568   3.345  0.1231  0.5331  0.7354
 1470SOL    HW1 4591   2.354   1.594   3.341 -0.2912 -1.0219 -1.7847
 1470SOL    HW2 4592   2.506   1.650   3.358 -1.4451  1.7492  0.0986
 1471SOL     OW 4593   2.199   2.980   4.826 -0.2047  0.0307  0.0718
 1471SOL    HW1 4594   2.266   3.031   4.771  1.6546 -1.6259  0.7086
 1471SOL    HW2 4595   2.208   3.007   4.922 -0.6561 -0.0101  0.1277
 1472SOL     OW 4596   2.821   0.915   1.340 -0.1931 -0.3898 -0.1127
 1472SOL    HW1 4597   2.899   0.853   1.350  0.0446 -0.0174  0.4128
 1472SOL    HW2 4598   2.853   1.010   1.345 -0.8192 -0.2290  1.4248
 1473SOL     OW 4599   2.679   4.909   1.325 -0.2419 -0.2752 -0.0265
 1473SOL    HW1 4600   2.778   4.912   1.333 -0.1168 -1.0207 -1.0821
 1473SOL    HW2 4601   2.653   4.914   1.228 -1.2763  0.8101  0.2843
 1474SOL     OW 4602   3.544   2.982   1.033  0.0068 -0.2670 -0.8881
 1474SOL    HW1 4603   3.534   2.936   1.121 -1.4659  0.1185 -0.8269
 1474SOL    HW2 4604   3.629   3.035   1.033  0.4465 -0.9482 -0.0250
 1475SOL     OW 4605   2.421   0.416   1.461  0.1455 -0.0407  0.2047
 1475SOL    HW1 4606   2.448   0.472   1.383  0.3675  1.0547  1.0390
 1475SOL    HW2 4607   2.496   0.414   1.527 -0.0656 -0.8876  0.4280
 1476SOL     OW 4608   2.735   3.002   1.218  0.4376  0.0300  0.0461
 1476SOL    HW1 4609   2.780   2.948   1.289  0.9271  0.1432 -0.1775
 1476SOL    HW2 4610   2.784   3.088   1.205 -0.8999  1.0051  1.1027
 1477SOL     OW 4611   2.991   4.982   1.904  0.1969  0.0252 -0.0400
 1477SOL    HW1 4612   3.054   4.914   1.867 -0.9318 -0.8703 -0.3832
 1477SOL    HW2 4613   2.922   5.004   1.835 -0.5751  0.0686  0.7218
 1478SOL     OW 4614   2.323   2.124   3.644 -0.2370  0.2449 -0.3621
 1478SOL    HW1 4615   2.412   2.093   3.610  0.8493  1.6282  1.0969
 1478SOL    HW2 4616   2.326   2.131   3.743 -1.2701  2.3882 -0.4303
 1479SOL     OW 4617   2.480   4.101   2.941  0.0346 -0.1947 -0.2344
 1479SOL    HW1 4618   2.477   4.003   2.920  2.7382 -0.7406  1.3783
 1479SOL    HW2 4619   2.561   4.142   2.897 -1.6379  1.6432 -1.7979
 1480SOL     OW 4620   3.500   1.328   3.101 -0.3436 -0.2153 -0.3597
 1480SOL    HW1 4621   3.418   1.313   3.046 -0.7178  0.7221 -0.0677
 1480SOL    HW2 4622   3.474   1.366   3.190  0.3746 -0.2923 -0.1070
 1481SOL     OW 4623   3.133   2.189   1.993 -0.5208 -0.3192 -0.3302
 1481SOL    HW1 4624   3.224   2.231   1.991 -0.9461  0.6282 -2.6479
 1481SOL    HW2 4625   3.139   2.097   1.954 -0.5078 -0.3414 -0.2754
 1482SOL     OW 4626   3.264   2.172   1.511 -0.0244  0.0439 -0.7134
 1482SOL    HW1 4627   3.275   2.255   1.456  0.0035 -0.2932 -1.2289
 1482SOL    HW2 4628   3.315   2.097   1.467  1.4844  0.1707  0.7084
 1483SOL     OW 4629   2.085   2.114   2.029 -0.3089 -0.0974  0.6260
 1483SOL    HW1 4630   2.117   2.195   1.979 -0.7320 -0.5930 -0.4742
 1483SOL    HW2 4631   2.024   2.144   2.102 -0.3536  0.5947  0.3189
 1484SOL     OW 4632   1.909   4.311   1.516  0.4875  0.3225  0.2235
 1484SOL    HW1 4633   1.888   4.231   1.572 -0.4422  0.6165  0.3213
 1484SOL    HW2 4634   1.837   4.324   1.449  0.9343  0.7365 -0.1865
 1485SOL     OW 4635   1.847   3.904   2.865  0.9410 -0.1117 -0.4902
 1485SOL    HW1 4636   1.888   3.848   2.937 -0.6892  2.9875  3.2108
 1485SOL    HW2 4637   1.902   3.985   2.850 -1.1304  1.7156  1.0582
 1486SOL     OW 4638   3.575   4.875   1.575  0.3465  0.2397  0.0570
 1486SOL    HW1 4639   3.656   4.821   1.597 -0.0647 -0.6477 -0.5893
 1486SOL    HW2 4640   3.517   4.882   1.657  0.4712 -0.1774  0.1812
 1487SOL     OW 4641   3.348   1.384   2.175 -0.5788 -0.1362 -0.1318
 1487SOL    HW1 4642   3.438   1.338   2.176 -0.1400  0.4542 -3.2034
 1487SOL    HW2 4643   3.290   1.342   2.245  1.8784 -0.8979  1.6136
 1488SOL     OW 4644   1.076   2.340   2.811  0.2042  0.6913 -0.2837
 1488SOL    HW1 4645   1.108   2.252   2.775 -0.2077  0.1593  0.6324
 1488SOL    HW2 4646   1.034   2.392   2.736 -2.0471 -1.0466 -0.3004
 1489SOL     OW 4647   2.828   2.992   4.702  0.5069  0.4281 -0.3792
 1489SOL    HW1 4648   2.836   2.994   4.602  0.3386 -1.9883 -0.4857
 1489SOL    HW2 4649   2.752   3.051   4.730  0.9851  1.6868 -1.5803
 1490SOL     OW 4650   1.848   3.070   2.478  0.1224 -0.6590  0.4609
 1490SOL    HW1 4651   1.748   3.063   2.468  0.0523 -0.4397  0.9436
 1490SOL    HW2 4652   1.891   3.055   2.389 -0.2678 -2.0206  0.4852
 1491SOL     OW 4653   1.717   1.380   2.302  0.1535 -0.4322  0.8497
 1491SOL    HW1 4654   1.797   1.419   2.349  0.4504 -1.7099  1.4373
 1491SOL    HW2 4655   1.672   1.315   2.363 -1.4168  0.3445  0.5608
 1492SOL     OW 4656   2.036   4.367   2.084 -0.0702 -0.5310 -0.1867
 1492SOL    HW1 4657   2.106   4.438   2.082 -0.2141 -0.2042  2.2993
 1492SOL    HW2 4658   2.012   4.340   1.991  1.5328  1.1316 -1.1315
 1493SOL     OW 4659   2.380   3.335   2.417 -0.5065  0.4644 -0.6327
 1493SOL    HW1 4660   2.411   3.428   2.396 -2.4223  1.1344 -0.7026
 1493SOL    HW2 4661   2.321   3.302   2.342  0.7960 -1.1652 -1.0090
 1494SOL     OW 4662   3.311   3.124   1.308 -0.0039  0.0328  0.6129
 1494SOL    HW1 4663   3.345   3.212   1.341 -0.2563 -0.3857  2.0818
 1494SOL    HW2 4664   3.389   3.064   1.289  0.1486  0.2232  0.6346
 1495SOL     OW 4665   1.208   3.437   2.716 -0.2285  0.1725 -0.3009
 1495SOL    HW1 4666   1.121   3.469   2.680 -1.4015 -0.0594  2.1010
 1495SOL    HW2 4667   1.228   3.485   2.802  1.0175 -1.1778  0.2106
 1496SOL     OW 4668   2.545   4.154   2.451  0.3452 -0.0009 -0.1650
 1496SOL    HW1 4669   2.534   4.187   2.357 -0.0272 -0.4570 -0.2906
 1496SOL    HW2 4670   2.483   4.204   2.511 -1.5367 -1.6103 -0.6449
 1497SOL     OW 4671   2.829   0.871   1.917  0.0959  0.5563  0.2415
 1497SOL    HW1 4672   2.861   0.963   1.941 -1.5045  1.1932  0.0234
 1497SOL    HW2 4673   2.731   0.874   1.896 -0.2956 -1.4081  1.4706
 1498SOL     OW 4674   2.242   0.424   3.900 -0.0779 -0.4393  0.8266
 1498SOL    HW1 4675   2.166   0.360   3.891  0.8015 -1.4891  0.5680
 1498SOL    HW2 4676   2.323   0.374   3.930  0.7059  0.5125  0.3589
 1499SOL     OW 4677   3.076   2.250   2.702  0.6145 -0.4354  0.5733
 1499SOL    HW1 4678   2.979   2.245   2.678  0.4863  3.0543 -0.1990
 1499SOL    HW2 4679   3.087   2.305   2.785  1.9761  1.8486 -0.9800
 1500SOL     OW 4680   3.572   0.854   1.239 -0.1746  0.8002 -0.3892
 1500SOL    HW1 4681   3.654   0.894   1.198  0.2542  0.1831 -0.1583
 1500SOL    HW2 4682   3.580   0.860   1.339  0.6747 -1.2668 -0.2639
 1501SOL     OW 4683   2.353   0.540   3.668  0.4066 -1.0309  0.0621
 1501SOL    HW1 4684   2.449   0.518   3.685  0.7745  0.2221 -0.2346
 1501SOL    HW2 4685   2.301   0.528   3.752  0.9917 -0.9335  0.4422
 1502SOL     OW 4686   2.048   2.230   4.408  0.1700  0.6046 -0.8702
 1502SOL    HW1 4687   2.066   2.308   4.348 -1.6810  0.3300 -1.8648
 1502SOL    HW2 4688   1.999   2.262   4.489  0.1944  0.6023 -0.8546
 1503SOL     OW 4689   1.768   2.112   3.087 -0.1140 -0.3525  0.1942
 1503SOL    HW1 4690   1.862   2.078   3.077 -0.4389 -1.8430  1.6550
 1503SOL    HW2 4691   1.705   2.050   3.041 -0.4219  0.4394 -0.4643
 1504SOL     OW 4692   3.732   3.318   2.122 -0.4714 -0.2240  0.7802
 1504SOL    HW1 4693   3.757   3.222   2.127 -0.4822 -0.3193 -0.6794
 1504SOL    HW2 4694   3.681   3.335   2.038  2.0821  1.6060 -0.5376
 1505SOL     OW 4695   3.420   2.503   1.561 -0.0454 -0.3370  0.2916
 1505SOL    HW1 4696   3.383   2.574   1.502 -0.0147 -0.6900 -0.1610
 1505SOL    HW2 4697   3.441   2.422   1.506  2.5530  0.2488  0.2948
 1506SOL     OW 4698   2.178   1.179   1.066  0.1353  0.3089  0.1530
 1506SOL    HW1 4699   2.217   1.123   0.993 -1.1241 -1.6129  0.8617
 1506SOL    HW2 4700   2.097   1.227   1.031  0.3552  0.5149 -0.0751
 1507SOL     OW 4701   3.291   2.466   4.820 -0.7859 -0.2029  0.1086
 1507SOL    HW1 4702   3.239   2.391   4.860 -1.1142 -0.4046 -0.6830
 1507SOL    HW2 4703   3.254   2.488   4.730  0.5255 -0.3830 -0.5051
 1508SOL     OW 4704   3.552   3.843   1.059 -0.0184 -0.1674 -0.3087
 1508SOL    HW1 4705   3.466   3.806   1.093  0.7259 -3.1190 -1.3243
 1508SOL    HW2 4706   3.536   3.887   0.970 -0.7920  1.4557  0.5781
 1509SOL     OW 4707   1.920   4.635   3.566 -0.2122  0.1905  0.1653
 1509SOL    HW1 4708   1.939   4.733   3.580 -0.6529  0.2941  0.0670
 1509SOL    HW2 4709   1.946   4.610   3.473 -2.7133  0.9022 -0.8018
 1510SOL     OW 4710   2.500   2.114   0.055 -0.1188 -0.3600 -0.5450
 1510SOL    HW1 4711   2.460   2.125  -0.036 -0.7943  0.5651 -0.1488
 1510SOL    HW2 4712   2.597   2.139   0.051 -0.0525 -0.6951 -1.0914
   5.00000   5.00000   5.00000
